LAMMPS data file via write_data, version 3 Mar 2020, timestep = 100000000

4000 atoms
32 atom types
4250 bonds
34 bond types
6750 angles
54 angle types
10000 dihedrals
80 dihedral types
2250 impropers
18 improper types

0.0000000000000000e+00 3.5671199999999999e+01 xlo xhi
0.0000000000000000e+00 3.5671199999999999e+01 ylo yhi
0.0000000000000000e+00 3.5671199999999999e+01 zlo zhi

Masses

1 12.011
2 12.011
3 12.011
4 12.011
5 12.011
6 12.011
7 12.011
8 12.011
9 12.011
10 12.011
11 12.011
12 12.011
13 12.011
14 12.011
15 12.011
16 12.011
17 12.011
18 12.011
19 1.008
20 1.008
21 1.008
22 1.008
23 1.008
24 1.008
25 1.008
26 1.008
27 1.008
28 1.008
29 1.008
30 1.008
31 1.008
32 1.008

Pair Coeffs # lj/cut/coul/long

1 0.07 3.55
2 0.07 3.55
3 0.07 3.55
4 0.07 3.55
5 0.07 3.55
6 0.07 3.55
7 0.07 3.55
8 0.07 3.55
9 0.07 3.55
10 0.07 3.55
11 0.07 3.55
12 0.07 3.55
13 0.07 3.55
14 0.07 3.55
15 0.07 3.55
16 0.07 3.55
17 0.07 3.55
18 0.07 3.55
19 0.03 2.42
20 0.03 2.42
21 0.03 2.42
22 0.03 2.42
23 0.03 2.42
24 0.03 2.42
25 0.03 2.42
26 0.03 2.42
27 0.03 2.42
28 0.03 2.42
29 0.03 2.42
30 0.03 2.42
31 0.03 2.42
32 0.03 2.42

Bond Coeffs # harmonic

1 469 1.4
2 469 1.4
3 469 1.4
4 469 1.4
5 469 1.4
6 385 1.46
7 469 1.4
8 469 1.4
9 469 1.4
10 469 1.4
11 385 1.46
12 385 1.46
13 469 1.4
14 469 1.4
15 469 1.4
16 469 1.4
17 469 1.4
18 367 1.08
19 367 1.08
20 367 1.08
21 367 1.08
22 367 1.08
23 367 1.08
24 367 1.08
25 367 1.08
26 367 1.08
27 367 1.08
28 367 1.08
29 367 1.08
30 367 1.08
31 367 1.08
32 469 1.4
33 469 1.4
34 469 1.4

Angle Coeffs # harmonic

1 63 120
2 63 120
3 63 120
4 63 120
5 63 120
6 63 120
7 63 120
8 63 120
9 63 120
10 63 120
11 63 120
12 63 120
13 63 120
14 63 120
15 63 120
16 63 120
17 35 120
18 35 120
19 35 120
20 35 120
21 35 120
22 35 120
23 35 120
24 35 120
25 35 120
26 35 120
27 35 120
28 35 120
29 35 120
30 35 120
31 35 120
32 35 120
33 35 120
34 35 120
35 63 120
36 63 120
37 35 120
38 35 120
39 63 120
40 63 120
41 63 120
42 35 120
43 35 120
44 63 120
45 35 120
46 35 120
47 35 120
48 35 120
49 35 120
50 63 120
51 63 120
52 63 120
53 35 120
54 63 120

Dihedral Coeffs # opls

1 0 7.25 0 0
2 0 7.25 0 0
3 0 7.25 0 0
4 0 2.17 0 0
5 0 7.25 0 0
6 0 7.25 0 0
7 0 7.25 0 0
8 0 2.17 0 0
9 0 7.25 0 0
10 0 7.25 0 0
11 0 7.25 0 0
12 0 7.25 0 0
13 0 7.25 0 0
14 0 7.25 0 0
15 0 7.25 0 0
16 0 7.25 0 0
17 0 7.25 0 0
18 0 2.17 0 0
19 0 7.25 0 0
20 0 7.25 0 0
21 0 2.17 0 0
22 0 7.25 0 0
23 0 7.25 0 0
24 0 7.25 0 0
25 0 7.25 0 0
26 0 7.25 0 0
27 0 7.25 0 0
28 0 7.25 0 0
29 0 7.25 0 0
30 0 2.17 0 0
31 0 7.25 0 0
32 0 7.25 0 0
33 0 7.25 0 0
34 0 7.25 0 0
35 0 7.25 0 0
36 0 7.25 0 0
37 0 7.25 0 0
38 0 7.25 0 0
39 0 2.17 0 0
40 0 7.25 0 0
41 0 7.25 0 0
42 0 7.25 0 0
43 0 7.25 0 0
44 0 7.25 0 0
45 0 2.17 0 0
46 0 7.25 0 0
47 0 7.25 0 0
48 0 2.17 0 0
49 0 2.17 0 0
50 0 7.25 0 0
51 0 7.25 0 0
52 0 2.17 0 0
53 0 7.25 0 0
54 0 7.25 0 0
55 0 7.25 0 0
56 0 7.25 0 0
57 0 7.25 0 0
58 0 7.25 0 0
59 0 7.25 0 0
60 0 7.25 0 0
61 0 7.25 0 0
62 0 7.25 0 0
63 0 7.25 0 0
64 0 7.25 0 0
65 0 2.17 0 0
66 0 7.25 0 0
67 0 7.25 0 0
68 0 7.25 0 0
69 0 7.25 0 0
70 0 7.25 0 0
71 0 7.25 0 0
72 0 7.25 0 0
73 0 7.25 0 0
74 0 2.17 0 0
75 0 7.25 0 0
76 0 7.25 0 0
77 0 7.25 0 0
78 0 7.25 0 0
79 0 7.25 0 0
80 0 7.25 0 0

Improper Coeffs # cvff

1 2.5 -1 2
2 2.5 -1 2
3 2.5 -1 2
4 2.5 -1 2
5 2.5 -1 2
6 2.5 -1 2
7 2.5 -1 2
8 2.5 -1 2
9 2.5 -1 2
10 2.5 -1 2
11 2.5 -1 2
12 2.5 -1 2
13 2.5 -1 2
14 2.5 -1 2
15 2.5 -1 2
16 2.5 -1 2
17 2.5 -1 2
18 2.5 -1 2

Atoms # full

3460 109 4 -4.1099999999999998e-02 4.6592316884736116e+00 3.9701918870381854e+00 4.9621064730688929e+00 0 0 0
3459 109 3 -1.2830000000000000e-01 5.5857235227371751e+00 3.0885985887165250e+00 4.3737144271278829e+00 0 0 0
3463 109 7 -1.4300000000000000e-02 5.0493961923277775e+00 5.3022534925086688e+00 5.5640500154183039e+00 0 0 0
3775 118 31 1.4050000000000001e-01 2.2798900764433720e+00 3.5466121254551668e+00 1.6935065491557404e+00 1 1 1
3488 109 32 1.4920000000000000e-01 5.2030522819554399e+00 3.3907215850951400e+00 7.5672953954625601e+00 0 0 0
3776 118 32 1.4920000000000000e-01 2.6451573389128149e+00 1.1814246096739616e+00 8.0834027983317736e-01 1 1 1
3461 109 5 -1.1650000000000001e-01 3.3504192883472861e+00 3.5319931844456325e+00 5.2140968489822495e+00 0 0 0
3458 109 2 -1.4340000000000000e-01 5.0876391387470488e+00 1.8050401368298969e+00 3.9736255588334637e+00 0 0 0
3457 109 1 -1.3410000000000000e-01 3.7854103685857399e+00 1.3227202638393261e+00 4.2310035310449576e+00 0 0 0
3761 118 17 -1.4419999999999999e-01 1.5116544056987014e+00 2.9799298979445989e+00 1.1771893821031156e+00 1 1 1
3762 118 18 -1.1730000000000000e-01 1.7199127386138109e+00 1.6544260030887921e+00 6.9094423489671541e-01 1 1 1
3478 109 22 1.4920000000000000e-01 2.6800693739929251e+00 4.2117759720444541e+00 5.6464298146921426e+00 0 0 0
3462 109 6 -1.4360000000000001e-01 2.9339118640714728e+00 2.2233410022669706e+00 4.9290573070752499e+00 0 0 0
927 29 31 1.4050000000000001e-01 5.2254821744266096e+00 4.0446664153910143e+00 1.2334054549343938e+00 0 0 0
2328 73 24 1.4249999999999999e-01 1.7413372176040833e+00 7.7554420852238304e-01 8.4354336377830634e+00 0 1 0
1303 41 23 1.4050000000000001e-01 4.2228027803136792e+00 5.5959473600962246e+00 8.6185656001937208e+00 0 1 1
2326 73 22 1.4920000000000000e-01 4.6167041050966793e+00 4.2631388738404380e-01 8.3203435831787651e+00 0 1 0
887 28 23 1.4050000000000001e-01 5.7192814160969052e-01 6.7248225521543470e-01 2.7728124675484191e+00 1 -1 0
926 29 30 1.3869999999999999e-01 5.0582294937929095e+00 1.6664962703233261e+00 1.3929763216989344e+00 0 0 0
3476 109 20 1.4080000000000001e-01 5.8761697196646265e+00 1.1573463249716986e+00 3.5882034476197124e+00 0 0 0
3475 109 19 1.3840000000000000e-01 3.5352952251376619e+00 2.6579124967567702e-01 4.0313542725558742e+00 0 0 0
1302 41 22 1.4920000000000000e-01 2.2635556404955826e+00 5.7423367631255822e+00 7.3884342674336931e+00 0 1 1
3479 109 23 1.4050000000000001e-01 1.8987742448008422e+00 2.0481787598130907e+00 5.0892970366918799e+00 0 0 0
3760 118 16 -1.3260000000000000e-01 3.1504886653412356e-01 3.6627701903828975e+00 8.8498803465900922e-01 1 1 1
3774 118 30 1.3869999999999999e-01 8.9614543640365321e-02 4.5990815670437240e+00 1.3716371372699236e+00 1 1 1
3468 109 12 -1.4600000000000000e-02 6.1321665267591614e+00 5.6256515376251048e+00 6.5007327273263318e+00 0 0 0
3477 109 21 1.3810000000000000e-01 6.7342938120865208e+00 3.2896154918330516e+00 4.2884967266686722e+00 0 0 0
3474 109 18 -1.1730000000000000e-01 6.3170113842711633e+00 3.4202263355762610e+00 7.5542361486550140e+00 0 0 0
909 29 13 -3.8100000000000002e-02 8.4847652257475534e+00 3.3842587378782851e+00 4.7414617136160253e-01 0 0 0
903 29 7 -1.4300000000000000e-02 1.1124060688800167e+01 3.8184804530789829e+00 5.5263906573316901e-01 0 0 0
3469 109 13 -3.8100000000000002e-02 6.9117817560396198e+00 4.6137626720126779e+00 7.1646839108215925e+00 0 0 0
3473 109 17 -1.4419999999999999e-01 7.0254399569333321e+00 2.4601758548015886e+00 8.2680392451489730e+00 0 0 0
916 29 20 1.4080000000000001e-01 1.0767725756392572e+01 2.5622265220651914e+00 4.9470241018098964e+00 0 0 0
899 29 3 -1.2830000000000000e-01 1.0926802330686225e+01 3.2024230817567063e+00 2.9255596573592744e+00 0 0 0
3471 109 15 -1.4369999999999999e-01 8.9967218475364117e+00 3.7627101149096238e+00 8.2292503088077869e+00 0 0 0
912 29 16 -1.3260000000000000e-01 6.0413500024834228e+00 2.1461526745213932e+00 1.1379808455458742e+00 0 0 0
913 29 17 -1.4419999999999999e-01 6.0777269159250613e+00 3.5241211553190990e+00 9.2297630604483127e-01 0 0 0
3470 109 14 -1.2780000000000000e-01 8.2534887251706888e+00 4.8119637310759176e+00 7.5638984838504371e+00 0 0 0
917 29 21 1.3810000000000000e-01 1.0563502766544786e+01 4.1364228877218743e+00 3.0822148378168852e+00 0 0 0
911 29 15 -1.4369999999999999e-01 7.2106463733719828e+00 1.3411534821049793e+00 9.8517933783810008e-01 0 0 0
910 29 14 -1.2780000000000000e-01 8.4683553349311644e+00 1.9566579646120303e+00 6.7715154106785924e-01 0 0 0
3484 109 28 1.3840000000000000e-01 8.8558016817230314e+00 5.5815132289110476e+00 7.1042653598099301e+00 0 0 0
3485 109 29 1.4060000000000000e-01 1.0032732473250181e+01 3.9802729317843082e+00 8.4306023245840951e+00 0 0 0
3472 109 16 -1.3260000000000000e-01 8.3591790234989745e+00 2.5652422096486971e+00 8.5347515510683962e+00 0 0 0
898 29 2 -1.4340000000000000e-01 1.1208845228347966e+01 2.2924163219952325e+00 3.9815039049751251e+00 0 0 0
2327 73 23 1.4050000000000001e-01 6.0636203609954684e+00 9.2770656438066840e-02 6.3822917053310730e+00 0 1 0
900 29 4 -4.1099999999999998e-02 1.1382057321101440e+01 2.8917641042609916e+00 1.6433708195969550e+00 0 0 0
3487 109 31 1.4050000000000001e-01 6.6345734420699163e+00 1.5125267696424118e+00 8.7143584519094617e+00 0 0 0
3544 111 24 1.4249999999999999e-01 9.1471684433210356e+00 8.1076125803446009e-01 6.3030677350299529e+00 -1 1 1
925 29 29 1.4060000000000000e-01 7.1573539994236981e+00 2.6011580472643681e-01 1.0908737896834892e+00 0 0 0
924 29 28 1.3840000000000000e-01 9.2836444425903046e+00 1.3163841591375285e+00 4.1818660613909908e-01 0 0 0
3545 111 25 1.4080000000000001e-01 8.8406846481102441e+00 5.8837302569706440e-01 3.8978289403632114e+00 -1 1 1
914 29 18 -1.1730000000000000e-01 7.2689715160813968e+00 4.1546310783754707e+00 5.6781019453567605e-01 0 0 0
928 29 32 1.4920000000000000e-01 7.2256170111123685e+00 5.2516956787128581e+00 3.9108231303606206e-01 0 0 0
908 29 12 -1.4600000000000000e-02 9.7418882071954673e+00 4.1482164854662216e+00 1.2681513247148768e-01 0 0 0
1815 57 23 1.4050000000000001e-01 3.8128480491996730e+00 9.6820964164260985e+00 8.3050641341860612e+00 0 0 0
1288 41 8 -1.3350000000000001e-01 1.8476403163013944e-01 7.9237634465033349e+00 6.7712640375071693e+00 0 1 1
1822 57 30 1.3869999999999999e-01 6.2723859838306861e-01 1.0853613862957719e+01 3.6636662996019167e+00 0 0 0
3060 96 20 1.4080000000000001e-01 5.4274730232251911e-01 1.1465978323779824e+01 8.5402644706421622e+00 0 0 1
3464 109 8 -1.3350000000000001e-01 4.3977205503269028e+00 6.3885630825416033e+00 4.9432145694965746e+00 0 0 0
3480 109 24 1.4249999999999999e-01 3.5967523661811991e+00 6.2410906254395320e+00 4.1700018015645561e+00 0 0 0
1304 41 24 1.4249999999999999e-01 1.2092890287580156e+00 8.1979367114036013e+00 6.4544709512333425e+00 0 1 1
3611 113 27 1.3990000000000000e-01 3.5089600340969551e+00 6.7014610847694680e+00 1.1130996095300130e+00 1 1 2
3594 113 10 -1.3660000000000000e-01 5.4638413073095684e+00 7.7074309142932940e+00 1.6138803353382836e+00 1 1 2
1284 41 4 -4.1099999999999998e-02 1.1193404146197357e+00 6.9560165001152114e+00 8.8267428895696547e+00 0 1 1
3465 109 9 -1.3680000000000000e-01 4.6622539333646555e+00 7.7024190261476440e+00 5.2783279784637598e+00 0 0 0
3481 109 25 1.4080000000000001e-01 4.2553510746637722e+00 8.5813569179173879e+00 4.8874034597292333e+00 0 0 0
1285 41 5 -1.1650000000000001e-01 2.2783484082980952e+00 6.3374258733217390e+00 8.3016027164601454e+00 0 1 1
1807 57 15 -1.4369999999999999e-01 2.6858272723245329e+00 1.1576990474439286e+01 3.5695138246953713e+00 0 0 0
1821 57 29 1.4060000000000000e-01 2.8424744837894709e+00 1.1017012845303178e+01 2.6213335389542491e+00 0 0 0
1797 57 5 -1.1650000000000001e-01 4.0875711898121869e+00 1.1682644715345985e+01 7.8585200070452537e+00 0 0 0
1814 57 22 1.4920000000000000e-01 4.6989786071817523e+00 1.1542376245399364e+01 6.9769629141805085e+00 0 0 0
3466 109 10 -1.3660000000000000e-01 5.6679088772931907e+00 8.0465717088691608e+00 6.2024754055960685e+00 0 0 0
3482 109 26 1.4219999999999999e-01 5.9031986279842013e+00 9.0981360481480387e+00 6.3883291238933095e+00 0 0 0
1808 57 16 -1.3260000000000000e-01 1.3740647328862834e+00 1.1475988856255075e+01 4.1386875744312874e+00 0 0 0
3610 113 26 1.4219999999999999e-01 5.1821125171715217e+00 7.9326392360648841e+00 2.6160085238618191e+00 1 1 2
1798 57 6 -1.4360000000000001e-01 3.5960029806191116e+00 1.0677021728773127e+01 8.6602060175523352e+00 0 0 0
3595 113 11 -1.3330000000000000e-01 4.5035687732829937e+00 7.0756727119630138e+00 7.3212928195899041e-01 1 1 2
284 9 28 1.3840000000000000e-01 1.0405659292228721e+01 1.1281677308062859e+01 4.4087539148886421e+00 1 -1 0
1727 54 31 1.4050000000000001e-01 1.0199428798318799e+01 8.5218110345760874e+00 1.6568465366679883e+00 0 -1 1
275 9 19 1.3840000000000000e-01 1.1168220083908846e+01 6.0352992079990067e+00 3.6402945914520939e+00 1 -1 0
270 9 14 -1.2780000000000000e-01 9.5338664564528450e+00 1.1480226412885932e+01 3.8192123293847393e+00 1 -1 0
1713 54 17 -1.4419999999999999e-01 1.1143722856502642e+01 8.9908213235793717e+00 1.2629493733202086e+00 0 -1 1
3467 109 11 -1.3330000000000000e-01 6.3562208600282055e+00 6.9884212086036639e+00 6.7714501669245566e+00 0 0 0
1728 54 32 1.4920000000000000e-01 1.1695571058478142e+01 9.6138517022843786e+00 3.2512209496102171e+00 0 -1 1
260 9 4 -4.1099999999999998e-02 9.7969881107153540e+00 9.1031426049178421e+00 5.5583475599422378e+00 1 -1 0
265 9 9 -1.3680000000000000e-01 8.5158282142125934e+00 1.0710668583213499e+01 8.6995398175074552e+00 1 -1 0
257 9 1 -1.3410000000000000e-01 1.0753090829738642e+01 6.8551436128945591e+00 4.2416970478167544e+00 1 -1 0
3609 113 25 1.4080000000000001e-01 7.5192837262902987e+00 8.5164794151367005e+00 1.7187066788878480e+00 1 1 2
280 9 24 1.4249999999999999e-01 9.7329134665931942e+00 9.0999472979156177e+00 8.2593619757238823e+00 1 -1 0
3593 113 9 -1.3680000000000000e-01 6.7204515727247500e+00 8.0893620626926701e+00 1.1035447473777327e+00 1 1 2
264 9 8 -1.3350000000000001e-01 9.2370138061411033e+00 9.8992272248378654e+00 7.8065018377929576e+00 1 -1 0
3483 109 27 1.3990000000000000e-01 7.1671489655464837e+00 7.2405240574351248e+00 7.4611454443871121e+00 0 0 0
276 9 20 1.4080000000000001e-01 8.6875819713943816e+00 6.8935072941341575e+00 3.3373538597747534e+00 1 -1 0
268 9 12 -1.4600000000000000e-02 8.3152707431588837e+00 1.1211668189159534e+01 5.8955490384912439e+00 1 -1 0
278 9 22 1.4920000000000000e-01 1.1811454923931326e+01 9.1524886605131321e+00 6.4474864550149711e+00 1 -1 0
258 9 2 -1.4340000000000000e-01 9.3831437260224657e+00 7.2972762286065453e+00 4.0490831229585993e+00 1 -1 0
269 9 13 -3.8100000000000002e-02 8.3381960572129028e+00 1.1649683855477734e+01 4.5031834551597756e+00 1 -1 0
259 9 3 -1.2830000000000000e-01 8.9429662996105233e+00 8.4290280934282613e+00 4.6793827284318219e+00 1 -1 0
262 9 6 -1.4360000000000001e-01 1.1556753860356972e+01 7.5308509762569553e+00 5.0856860120792398e+00 1 -1 0
263 9 7 -1.4300000000000000e-02 9.1755645431994495e+00 1.0100059246355219e+01 6.4191529803341147e+00 1 -1 0
277 9 21 1.3810000000000000e-01 7.9317199181589197e+00 8.6959974378587290e+00 4.6711256978414530e+00 1 -1 0
261 9 5 -1.1650000000000001e-01 1.1080665661024179e+01 8.6856215473972327e+00 5.7873269272989960e+00 1 -1 0
266 9 10 -1.3660000000000000e-01 7.5222150542453328e+00 1.1669842024977312e+01 8.2031579876188268e+00 1 -1 0
267 9 11 -1.3330000000000000e-01 7.4884559174065570e+00 1.1867233712329927e+01 6.8086508986612895e+00 1 -1 0
271 9 15 -1.4369999999999999e-01 9.6561862546942923e+00 1.1794262947182206e+01 2.4097439007710419e+00 1 -1 0
285 9 29 1.4060000000000000e-01 1.0621747963236315e+01 1.1592814284655837e+01 1.9116501947028843e+00 1 -1 0
2485 78 21 1.3810000000000000e-01 1.1396867476010948e+01 7.7442257190767743e+00 8.8329828804510697e+00 0 0 0
544 17 32 1.4920000000000000e-01 4.1009512505180297e+00 5.1003221433369719e+00 1.2883929541784021e+01 1 1 -1
543 17 31 1.4050000000000001e-01 2.6821655959060973e+00 3.6771427183670964e+00 1.4481522369143633e+01 1 1 -1
1450 46 10 -1.3660000000000000e-01 2.9505089991870959e+00 3.0082100121758280e+00 1.1071513038933556e+01 -1 0 0
529 17 17 -1.4419999999999999e-01 3.1010682656603969e+00 4.6599065626825276e+00 1.4716878789173755e+01 1 1 -1
1451 46 11 -1.3330000000000000e-01 3.7045147814404094e+00 2.1003501975957581e+00 1.1829671797541312e+01 -1 0 0
530 17 18 -1.1730000000000000e-01 3.8766485108206252e+00 5.4300124242195436e+00 1.3872287662763295e+01 1 1 -1
1447 46 7 -1.4300000000000000e-02 1.5637531007190135e+00 1.5554753311840817e+00 1.3210187456221908e+01 -1 0 0
1466 46 26 1.4219999999999999e-01 3.3635243342679195e+00 3.6039322263155156e+00 1.0271777187272868e+01 -1 0 0
1452 46 12 -1.4600000000000000e-02 3.0833630915730472e+00 1.4226403927795492e+00 1.2924277843786554e+01 -1 0 0
1467 46 27 1.3990000000000000e-01 4.7557850908162829e+00 1.9473831602548373e+00 1.1745297864245018e+01 -1 0 0
1468 46 28 1.3840000000000000e-01 3.4084651269015898e+00 1.9383867184122729e+00 1.5636100757821275e+01 -1 0 0
1454 46 14 -1.2780000000000000e-01 3.9652953916413316e+00 1.0611502098309846e+00 1.5272072177804770e+01 -1 0 0
1449 46 9 -1.3680000000000000e-01 1.5742836542544763e+00 3.2774450517373412e+00 1.1366335719486120e+01 -1 0 0
1453 46 13 -3.8100000000000002e-02 3.8910584351289872e+00 6.7966868363432864e-01 1.3863631869509824e+01 -1 0 0
528 17 16 -1.3260000000000000e-01 2.8082535411429093e+00 5.2137271321163308e+00 1.5974591472494108e+01 1 1 -1
542 17 30 1.3869999999999999e-01 2.2259134454219023e+00 4.5864523962218104e+00 1.6675782020819387e+01 1 1 -1
1448 46 8 -1.3350000000000001e-01 8.6857081437520456e-01 2.4982691652232143e+00 1.2361475339982336e+01 -1 0 0
1054 33 30 1.3869999999999999e-01 4.9982388842096084e+00 4.5049913492345084e+00 1.6753091837967297e+01 0 0 0
1444 46 4 -4.1099999999999998e-02 8.2551942001538481e-01 6.5141408797879119e-01 1.4155654103093914e+01 -1 0 0
1465 46 25 1.4080000000000001e-01 1.0564999138712146e+00 4.0896846830445721e+00 1.0947534555878361e+01 -1 0 0
1040 33 16 -1.3260000000000000e-01 5.7876131469584289e+00 4.3599641859971072e+00 1.7495947843635520e+01 0 0 0
1469 46 29 1.4060000000000000e-01 4.9874707166054169e+00 7.5969752267559654e-01 1.7234724654350916e+01 -1 0 0
1455 46 15 -1.4369999999999999e-01 4.7709074204436126e+00 4.2310965859299199e-01 1.6198492058934082e+01 -1 0 0
3486 109 30 1.3869999999999999e-01 8.9791638607720010e+00 1.7789867302417064e+00 9.0526813626726632e+00 0 0 0
534 17 22 1.4920000000000000e-01 6.2523872601748973e+00 4.8527305611195439e+00 1.0716816316623460e+01 1 1 -1
516 17 4 -4.1099999999999998e-02 6.8416835911581284e+00 5.3966562095885298e+00 1.2632477651282336e+01 1 1 -1
517 17 5 -1.1650000000000001e-01 6.8515776475334880e+00 4.5132866578737829e+00 1.1526362299325926e+01 1 1 -1
533 17 21 1.3810000000000000e-01 7.4467254999461225e+00 5.7606655557715172e+00 1.4644829889464642e+01 1 1 -1
515 17 3 -1.2830000000000000e-01 7.3731465965754577e+00 5.0321761001174989e+00 1.3870432778280250e+01 1 1 -1
1025 33 1 -1.3410000000000000e-01 1.1617418290241053e+01 4.5196333591003341e+00 1.5555129708260678e+01 0 0 0
535 17 23 1.4050000000000001e-01 7.2418251294022333e+00 2.3726826032484669e+00 1.1058700047267241e+01 1 1 -1
518 17 6 -1.4360000000000001e-01 7.2878610710072467e+00 3.1983077610188868e+00 1.1751199603164382e+01 1 1 -1
532 17 20 1.4080000000000001e-01 8.2257427970813701e+00 3.5191794998630574e+00 1.4992917350134380e+01 1 1 -1
514 17 2 -1.4340000000000000e-01 7.8985130323370569e+00 3.8092446577188528e+00 1.4029365770154559e+01 1 1 -1
531 17 19 1.3840000000000000e-01 8.4598437586800603e+00 1.9521748051182717e+00 1.3094896446208782e+01 1 1 -1
513 17 1 -1.3410000000000000e-01 7.9082352416315791e+00 2.9176600364091110e+00 1.2983710394722818e+01 1 1 -1
2153 68 9 -1.3680000000000000e-01 9.4229850725584150e+00 2.3018638608821251e-01 1.5366465613504811e+01 -1 1 0
1030 33 6 -1.4360000000000001e-01 1.0617670341569980e+01 5.4199096056587885e+00 1.6041251271673655e+01 0 0 0
2169 68 25 1.4080000000000001e-01 8.7362137482179207e+00 5.1831761280780908e-01 1.4522603848204211e+01 -1 1 0
2484 78 20 1.4080000000000001e-01 1.0163967011793387e+01 5.9198703435085536e+00 1.0332414263279599e+01 0 0 0
2152 68 8 -1.3350000000000001e-01 9.1000701628592768e+00 3.4426929957871338e-01 1.6697684031400357e+01 -1 1 0
3540 111 20 1.4080000000000001e-01 1.1579722602538913e+01 2.2964277732451888e-01 1.0390643227417192e+01 -1 1 1
1029 33 5 -1.1650000000000001e-01 1.0259672622025127e+01 5.5048558849190847e+00 1.7417822543677140e+01 0 0 0
2168 68 24 1.4249999999999999e-01 8.1572591543659740e+00 8.2638541199719207e-01 1.6921141751711961e+01 -1 1 0
1039 33 15 -1.4369999999999999e-01 6.6484010254919221e+00 3.2719146889250483e+00 1.7533983659423956e+01 0 0 0
1053 33 29 1.4060000000000000e-01 6.3969377102433045e+00 2.3314838662222699e+00 1.7050471343726826e+01 0 0 0
1043 33 19 1.3840000000000000e-01 1.1862211154239487e+01 4.6785543946653432e+00 1.4514204139506981e+01 0 0 0
3283 103 19 1.3840000000000000e-01 2.2479783586193074e+00 1.0242673462105992e+01 1.7298197866586865e+01 1 -1 1
1299 41 19 1.3840000000000000e-01 4.2771903652561676e+00 6.6794718264101682e+00 1.1010695007752819e+01 0 1 1
527 17 15 -1.4369999999999999e-01 3.3954042954906614e+00 6.4097114244705065e+00 1.6398937711392779e+01 1 1 -1
1301 41 21 1.3810000000000000e-01 2.1037659743626225e-01 7.9002035459020501e+00 1.0462061511536776e+01 0 1 1
1283 41 3 -1.2830000000000000e-01 1.1426974694327570e+00 7.4144959720443584e+00 1.0121232187369147e+01 0 1 1
522 17 10 -1.3660000000000000e-01 5.5164216392178851e+00 9.4401221219694200e+00 1.1900903506923900e+01 1 1 -1
1286 41 6 -1.4360000000000001e-01 3.4257021603436693e+00 6.0787604421588650e+00 9.1018542256005848e+00 0 1 1
3265 103 1 -1.3410000000000000e-01 3.2323822714370634e+00 9.9692768262528340e+00 1.7680540939451944e+01 1 -1 1
3057 96 17 -1.4419999999999999e-01 1.0543328142157717e+00 8.6307722907683431e+00 1.4210412044368693e+01 0 0 1
3071 96 31 1.4050000000000001e-01 1.5549291288807188e+00 7.8416363497600781e+00 1.4817503787315648e+01 0 0 1
1793 57 1 -1.3410000000000000e-01 2.9866817517674709e+00 1.0911533937999748e+01 9.8652432070090139e+00 0 0 0
3270 103 6 -1.4360000000000001e-01 4.3672764877365067e+00 1.0464200973491483e+01 1.6943026984742065e+01 1 -1 1
1300 41 20 1.4080000000000001e-01 2.5541650654314449e+00 7.7562228587098847e+00 1.1906998075767163e+01 0 1 1
1282 41 2 -1.4340000000000000e-01 2.3586015997261112e+00 7.2959769997223187e+00 1.0919784404256038e+01 0 1 1
525 17 13 -3.8100000000000002e-02 4.4735845047544274e+00 6.6270108567980097e+00 1.4305979180974679e+01 1 1 -1
524 17 12 -1.4600000000000000e-02 5.2012237230848042e+00 7.4069663304554281e+00 1.3258072708614103e+01 1 1 -1
1281 41 1 -1.3410000000000000e-01 3.4609600341929325e+00 6.7259156969766023e+00 1.0372911120662977e+01 0 1 1
526 17 14 -1.2780000000000000e-01 4.2827699066658287e+00 7.1305222186299453e+00 1.5606668158283568e+01 1 1 -1
540 17 28 1.3840000000000000e-01 4.6750018906507869e+00 8.0454390184768876e+00 1.6065949196949113e+01 1 1 -1
539 17 27 1.3990000000000000e-01 4.2525721632497469e+00 9.3363943449028586e+00 1.3600268547389959e+01 1 1 -1
3070 96 30 1.3869999999999999e-01 2.1372445046609752e+00 1.0165397879384626e+01 1.5295027242492147e+01 0 0 1
523 17 11 -1.3330000000000000e-01 4.8993341334045430e+00 8.7517493328251614e+00 1.2951099408740093e+01 1 1 -1
1811 57 19 1.3840000000000000e-01 2.7491967915073250e+00 1.0058960036022759e+01 1.0484786450727791e+01 0 0 0
3056 96 16 -1.3260000000000000e-01 1.3400268919593339e+00 9.9541302895326425e+00 1.4573862936183424e+01 0 0 1
541 17 29 1.4060000000000000e-01 3.1730198747181997e+00 6.7634451946286154e+00 1.7379348113135784e+01 1 1 -1
538 17 26 1.4219999999999999e-01 5.3557823505435316e+00 1.0474160889336623e+01 1.1623969363643273e+01 1 1 -1
3055 96 15 -1.4369999999999999e-01 5.4626502991643611e-01 1.1008074535892201e+01 1.4063856597492435e+01 0 0 1
3287 103 23 1.4050000000000001e-01 4.1410869972076032e+00 1.1124301646574271e+01 1.6135321574922305e+01 1 -1 1
3269 103 5 -1.1650000000000001e-01 5.6576271139326693e+00 1.0251079472914792e+01 1.7405368964974830e+01 1 -1 1
1047 33 23 1.4050000000000001e-01 1.0089532682334356e+01 6.2025695323699415e+00 1.5491993791680169e+01 0 0 0
2487 78 23 1.4050000000000001e-01 1.1659252883331556e+01 7.7602052116300344e+00 1.3896993833687638e+01 0 0 0
521 17 9 -1.3680000000000000e-01 6.3835897550071419e+00 8.7882893318174009e+00 1.0989897554085795e+01 1 1 -1
2483 78 19 1.3840000000000000e-01 1.0433195005772703e+01 6.0304355034873938e+00 1.2717431539201941e+01 0 0 0
2465 78 1 -1.3410000000000000e-01 1.0969198788101655e+01 6.7854997694142751e+00 1.2121355633106848e+01 0 0 0
2488 78 24 1.4249999999999999e-01 1.1407158519330268e+01 1.1421419369615968e+01 1.0893703005989659e+01 0 0 0
3295 103 31 1.4050000000000001e-01 1.0421092051658299e+01 1.0987399419345111e+01 1.4794280516576595e+01 1 -1 1
2467 78 3 -1.2830000000000000e-01 1.1379154960654075e+01 7.7787566762645817e+00 9.9445674124027512e+00 0 0 0
3292 103 28 1.3840000000000000e-01 7.0918837311879406e+00 7.7873546091608379e+00 1.6835015030011323e+01 1 -1 1
3280 103 16 -1.3260000000000000e-01 8.8094692210608212e+00 9.5455462454080848e+00 1.4496302062875785e+01 1 -1 1
520 17 8 -1.3350000000000001e-01 6.7932891550564021e+00 7.4678040446941809e+00 1.1282093129633077e+01 1 1 -1
3279 103 15 -1.4369999999999999e-01 7.9823176668697737e+00 8.6195724301063343e+00 1.5095834000257911e+01 1 -1 1
3294 103 30 1.3869999999999999e-01 8.8793073898388535e+00 9.4805624688463048e+00 1.3386238799336354e+01 1 -1 1
3296 103 32 1.4920000000000000e-01 1.0404327294769228e+01 1.0901134163902174e+01 1.7131237792922938e+01 1 -1 1
3277 103 13 -3.8100000000000002e-02 8.7187392689128220e+00 9.4499801810677280e+00 1.7234800007987463e+01 1 -1 1
519 17 7 -1.4300000000000000e-02 6.2999019395827602e+00 6.7578464101823057e+00 1.2440861013963564e+01 1 1 -1
3278 103 14 -1.2780000000000000e-01 7.9627888570527032e+00 8.4567298370026691e+00 1.6501077759020539e+01 1 -1 1
3281 103 17 -1.4419999999999999e-01 9.6813406667827522e+00 1.0378322028860438e+01 1.5233502853249155e+01 1 -1 1
2470 78 6 -1.4360000000000001e-01 1.1644019029000440e+01 7.7615782386499381e+00 1.2802263301496554e+01 0 0 0
536 17 24 1.4249999999999999e-01 7.6104846062716875e+00 7.0957570721601000e+00 1.0668718786970258e+01 1 1 -1
537 17 25 1.4080000000000001e-01 6.8172970757917346e+00 9.2627569604362758e+00 1.0103372328036238e+01 1 1 -1
3293 103 29 1.4060000000000000e-01 7.4706221216667092e+00 8.0753666085736686e+00 1.4276869937603662e+01 1 -1 1
3282 103 18 -1.1730000000000000e-01 9.6545147228319994e+00 1.0255086549261870e+01 1.6618985729635320e+01 1 -1 1
2466 78 2 -1.4340000000000000e-01 1.0749390001207034e+01 6.7915117615365688e+00 1.0761882765973262e+01 0 0 0
3286 103 22 1.4920000000000000e-01 6.5226729838851769e+00 1.0612015918757836e+01 1.6747083988095575e+01 1 -1 1
281 9 25 1.4080000000000001e-01 8.6193330097011653e+00 1.0540712179496214e+01 9.7645244775068445e+00 1 -1 0
1046 33 22 1.4920000000000000e-01 9.4530188058722118e+00 6.2209775822700033e+00 1.7776479562651367e+01 0 0 0
36 2 4 -4.1099999999999998e-02 2.1891077422399676e+00 2.6400423594214897e+00 2.4093833015368034e+01 -1 0 -1
39 2 7 -1.4300000000000000e-02 3.5451706581205831e+00 2.5986740816904206e+00 2.3572395149936980e+01 -1 0 -1
40 2 8 -1.3350000000000001e-01 3.7088711941517851e+00 2.0939087976236119e+00 2.2291862503290997e+01 -1 0 -1
35 2 3 -1.2830000000000000e-01 1.6926425883084999e+00 3.8164233339583622e+00 2.4688682323244134e+01 -1 0 -1
56 2 24 1.4249999999999999e-01 2.8258671765183405e+00 1.8234685995963926e+00 2.1796108011893697e+01 -1 0 -1
2385 75 17 -1.4419999999999999e-01 2.9535208451881947e+00 4.1454354332560692e+00 2.0024914886704078e+01 1 1 -1
37 2 5 -1.1650000000000001e-01 1.4345723852938352e+00 1.4880938062886100e+00 2.4075739033127348e+01 -1 0 -1
44 2 12 -1.4600000000000000e-02 4.6845241219631939e+00 3.0616560725019464e+00 2.4375280780144948e+01 -1 0 -1
2399 75 31 1.4050000000000001e-01 3.7961417991818029e+00 4.8189080759338303e+00 2.0136720772604605e+01 1 1 -1
2384 75 16 -1.3260000000000000e-01 3.1672913007817098e+00 3.0741726979499822e+00 1.9172659090736136e+01 1 1 -1
2386 75 18 -1.1730000000000000e-01 1.6963141484331523e+00 4.4200039371300432e+00 2.0477960859475264e+01 1 1 -1
53 2 21 1.3810000000000000e-01 2.2558251082575191e+00 4.6897437530921033e+00 2.4707165309085656e+01 -1 0 -1
41 2 9 -1.3680000000000000e-01 4.9469220191283432e+00 1.8422068793013173e+00 2.1801607812731955e+01 -1 0 -1
57 2 25 1.4080000000000001e-01 5.2312076823665397e+00 1.2416457540083303e+00 2.0927823389484359e+01 -1 0 -1
2383 75 15 -1.4369999999999999e-01 2.1700192770403501e+00 2.2740324051271532e+00 1.8716431987273847e+01 1 1 -1
2804 88 20 1.4080000000000001e-01 3.4939112751702606e+00 5.5199886139662464e+00 2.2288537281639783e+01 0 -1 0
45 2 13 -3.8100000000000002e-02 4.6580769775882294e+00 3.3512879417858636e+00 2.5840029602255676e+01 -1 0 -1
2398 75 30 1.3869999999999999e-01 4.1808864459427841e+00 2.8929554069447052e+00 1.8753732721130028e+01 1 1 -1
54 2 22 1.4920000000000000e-01 1.9182670647228439e+00 5.8743118447868969e-01 2.3830079138051818e+01 -1 0 -1
2400 75 32 1.4920000000000000e-01 1.5105559144921761e+00 5.2800809544983922e+00 2.1107641158388663e+01 1 1 -1
2382 75 14 -1.2780000000000000e-01 8.6461164550596081e-01 2.6509351312165408e+00 1.9040985948299976e+01 1 1 -1
43 2 11 -1.3330000000000000e-01 5.9317776448287649e+00 3.0503779285728787e+00 2.3675176397580557e+01 -1 0 -1
38 2 6 -1.4360000000000001e-01 5.7727673899379245e-02 1.5123925041595605e+00 2.4476833681249044e+01 -1 0 -1
64 2 32 1.4920000000000000e-01 5.9119899896971146e+00 5.1156419494817786e+00 2.5679759996218177e+01 -1 0 -1
50 2 18 -1.1730000000000000e-01 5.4371894005355967e+00 4.3873431761373736e+00 2.6323816833947124e+01 -1 0 -1
34 2 2 -1.4340000000000000e-01 3.4818184257830764e-01 3.7918729904509938e+00 2.5156542252488066e+01 -1 0 -1
2381 75 13 -3.8100000000000002e-02 5.8244728832877213e-01 3.6204972250272265e+00 2.0031908146395100e+01 1 1 -1
2803 88 19 1.3840000000000000e-01 5.8628038980378658e+00 5.6688222238492489e+00 2.2463975149147004e+01 0 -1 0
60 2 28 1.3840000000000000e-01 3.3924312026220624e+00 1.6347440599957475e+00 2.6378716387531668e+01 -1 0 -1
2397 75 29 1.4060000000000000e-01 2.3355334935710612e+00 1.4149443239477342e+00 1.8067521884699477e+01 1 1 -1
46 2 14 -1.2780000000000000e-01 3.9793301142592745e+00 2.4932976572380969e+00 2.6743029148533623e+01 -1 0 -1