LAMMPS (23 Jun 2022)
OMP_NUM_THREADS environment is not set. Defaulting to 1 thread. (src/comm.cpp:98)
  using 1 OpenMP thread(s) per MPI task
# Create initial configuration

units real
atom_style full
boundary p p p

# Potential
pair_style lj/cut/coul/long 9.0 9.0
pair_modify mix geometric
bond_style      harmonic
angle_style     harmonic
dihedral_style  opls
improper_style  cvff
special_bonds lj/coul 0.0 0.0 0.5
pair_modify tail yes
kspace_style pppm 1.0e-4

# Setup initial structure
read_data data.initial
Reading data file ...
  orthogonal box = (0 0 0) to (35.6712 35.6712 35.6712)
  2 by 4 by 4 MPI processor grid
  reading atoms ...
  4000 atoms
  reading velocities ...
  4000 velocities
  scanning bonds ...
  2 = max bonds/atom
  scanning angles ...
  3 = max angles/atom
  scanning dihedrals ...
  6 = max dihedrals/atom
  scanning impropers ...
  2 = max impropers/atom
  reading bonds ...
  4250 bonds
  reading angles ...
  6750 angles
  reading dihedrals ...
  10000 dihedrals
  reading impropers ...
  2250 impropers
Finding 1-2 1-3 1-4 neighbors ...
  special bond factors lj:    0        0        0.5     
  special bond factors coul:  0        0        0.5     
     3 = max # of 1-2 neighbors
     6 = max # of 1-3 neighbors
    16 = max # of 1-4 neighbors
    18 = max # of special neighbors
  special bonds CPU = 0.012 seconds
  read_data CPU = 0.174 seconds
variable L index 35.944
change_box all x final 0 $L y final 0 $L z final 0 $L boundary p p p remap units box
change_box all x final 0 35.944 y final 0 $L z final 0 $L boundary p p p remap units box
change_box all x final 0 35.944 y final 0 35.944 z final 0 $L boundary p p p remap units box
change_box all x final 0 35.944 y final 0 35.944 z final 0 35.944 boundary p p p remap units box
Changing box ...
  orthogonal box = (0 0 0) to (35.944 35.6712 35.6712)
  orthogonal box = (0 0 0) to (35.944 35.944 35.6712)
  orthogonal box = (0 0 0) to (35.944 35.944 35.944)

# Integrator
timestep 2.0
variable T index 380
fix langevin all langevin $T $T 200 2022 gjf vhalf
fix langevin all langevin 380 $T 200 2022 gjf vhalf
fix langevin all langevin 380 380 200 2022 gjf vhalf
fix integrator all nve
fix no_cm_drift all momentum 100 linear 1 1 1
neigh_modify every 1 check yes

# Compute virial
compute virial all pressure NULL virial

# Output
thermo_style custom step temp press pe ke evdwl ecoul emol vol density c_virial
thermo 40
dump dumpATOM all atom 50000 dump.constant_volume
dump_modify dumpATOM image yes
#dump XYZ all xyz 50000 constant_volume.xyz
restart 50000 crash.1.restart crash.2.restart

# Run simulation
variable run index 100000000
run ${run}
run 100000000
PPPM initialization ...
  using 12-bit tables for long-range coulomb (src/kspace.cpp:342)
  G vector (1/distance) = 0.21911997
  grid = 10 10 10
  stencil order = 5
  estimated absolute RMS force accuracy = 0.031434737
  estimated relative force accuracy = 9.4664778e-05
  using double precision KISS FFT
  3d grid and FFT values/proc = 640 60
Generated 496 of 496 mixed pair_coeff terms from geometric mixing rule
Neighbor list info ...
  update every 1 steps, delay 10 steps, check yes
  max neighbors/atom: 2000, page size: 100000
  master list distance cutoff = 11
  ghost atom cutoff = 11
  binsize = 5.5, bins = 7 7 7
  1 neighbor lists, perpetual/occasional/extra = 1 0 0
  (1) pair lj/cut/coul/long, perpetual
      attributes: half, newton on
      pair build: half/bin/newton
      stencil: half/bin/3d
      bin: standard
Per MPI rank memory allocation (min/avg/max) = 12.97 | 12.98 | 12.98 Mbytes
   Step          Temp          Press          PotEng         KinEng         E_vdwl         E_coul         E_mol          Volume        Density        c_virial   
         0   344.93695     -26171.196      5196.6258      4111.7379     -647.60531      2486.3671      6072.3676      46438.611      1.0294201     -30218.624    
        40   384.74831     -1813.1959      5029.1247      4586.2996     -393.5147       2504.6959      5631.3149      46438.611      1.0294201     -6327.7625    
        80   386.35782      2081.5942      4969.0675      4605.4855     -359.1803       2485.0399      5558.2705      46438.611      1.0294201     -2451.8581    
       120   386.06626     -548.78717      4866.6535      4602.0099     -478.21544      2501.6095      5557.8171      46438.611      1.0294201     -5078.8183    
       160   376.68499      2197.9311      5051.6645      4490.1828     -390.06892      2511.7764      5645.6552      46438.611      1.0294201     -2222.0219    
       200   380.97554      1350.0011      4874.4137      4541.3273     -400.1159       2504.0138      5486.1592      46438.611      1.0294201     -3120.2964    
       240   379.19315      419.86949      4856.1045      4520.0807     -394.17844      2499.039       5466.0107      46438.611      1.0294201     -4029.5138    
       280   373.62946     -258.28984      4916.1399      4453.7601     -419.78464      2508.0565      5542.2628      46438.611      1.0294201     -4642.3898    
       320   379.62025     -1377.4077      4914.8047      4525.1718     -428.92896      2516.3424      5541.3977      46438.611      1.0294201     -5831.8025    
       360   382.82994      1527.8409      4961.6308      4563.4322     -387.60239      2506.2119      5558.8465      46438.611      1.0294201     -2964.2159    
       400   377.96021      253.20923      4998.394       4505.3837     -368.69829      2482.171       5601.46        46438.611      1.0294201     -4181.707     
       440   380.58273      863.5097       5082.9255      4536.6448     -378.61303      2488.7937      5688.7252      46438.611      1.0294201     -3602.1787    
       480   384.2771      -2062.4443      5066.4955      4580.6827     -396.85676      2494.5115      5682.2073      46438.611      1.0294201     -6571.4818    
       520   391.49679      510.20823      4918.8586      4666.7432     -359.21268      2498.4854      5492.2773      46438.611      1.0294201     -4083.5437    
       560   381.65576      1419.1715      4932.77        4549.4357     -385.89385      2502.0558      5530.6531      46438.611      1.0294201     -3059.1078    
       600   376.51236      385.82274      4927.3469      4488.125      -386.91259      2495.6549      5532.1793      46438.611      1.0294201     -4032.1047    
       640   381.34337     -467.01437      4822.5042      4545.7119     -415.57461      2488.4586      5463.6883      46438.611      1.0294201     -4941.628     
       680   375.4648      -573.27763      4886.6757      4475.6378     -424.09364      2489.4948      5535.9207      46438.611      1.0294201     -4978.9132    
       720   374.25805     -87.388833      4858.0321      4461.253      -416.41503      2492.0645      5497.3573      46438.611      1.0294201     -4478.8646    
       760   373.10164     -877.01655      4856.94        4447.4683     -395.43554      2492.1582      5474.2596      46438.611      1.0294201     -5254.9232    
       800   375.90812      319.23621      4980.3152      4480.9223     -403.45303      2502.2116      5597.2589      46438.611      1.0294201     -4091.6012    
       840   381.4272      -1418.0724      4988.6467      4546.7112     -444.86535      2505.8361      5642.6799      46438.611      1.0294201     -5893.6697    
       880   392.77462      1409.7408      4971.7614      4681.9754     -374.70417      2508.1576      5552.45        46438.611      1.0294201     -3199.0051    
       920   386.13092      1166.1882      4914.5071      4602.7807     -374.6314       2509.0255      5494.2867      46438.611      1.0294201     -3364.6017    
       960   386.38172     -1141.298       4901.8098      4605.7703     -430.77131      2504.5412      5544.4569      46438.611      1.0294201     -5675.0308    
      1000   382.76964     -1447.4138      4980.353       4562.7134     -441.12718      2498.4779      5638.2179      46438.611      1.0294201     -5938.7631    
      1040   391.17892     -414.52091      5023.3532      4662.9542     -404.99293      2499.9246      5644.5714      46438.611      1.0294201     -5004.5431    
      1080   387.94377     -1032.0028      5104.0617      4624.3903     -408.64495      2509.9492      5717.7608      46438.611      1.0294201     -5584.0643    
      1120   380.10642     -1101.7591      4963.5825      4530.9671     -421.54299      2503.1786      5596.4046      46438.611      1.0294201     -5561.8586    
      1160   379.92138     -516.54546      4943.2648      4528.7614     -413.94594      2518.0597      5553.7005      46438.611      1.0294201     -4974.4738    
      1200   376.02102      312.43442      4831.0113      4482.2681     -402.71997      2508.7592      5440.0852      46438.611      1.0294201     -4099.7278    
      1240   367.49709     -1407.0777      4869.5127      4380.6606     -387.56723      2500.8617      5472.3949      46438.611      1.0294201     -5719.2216    
      1280   372.82166      2113.1391      4850.9426      4444.1309     -362.10112      2504.7413      5424.2759      46438.611      1.0294201     -2261.4823    
      1320   375.44552      63.98107       4785.4004      4475.408      -402.5387       2499.2924      5404.5394      46438.611      1.0294201     -4341.4283    
      1360   371.30005     -256.16641      4858.7079      4425.9929     -405.30861      2493.3514      5486.1663      46438.611      1.0294201     -4612.9336    
      1400   375.30833     -599.01602      4866.2122      4473.7727     -433.3633       2495.6653      5520.3936      46438.611      1.0294201     -5002.8156    
      1440   382.83892      580.19021      4856.6968      4563.5393     -387.75523      2496.7545      5463.1625      46438.611      1.0294201     -3911.972     
      1480   373.73895      2492.8694      4994.0353      4455.0652     -363.95549      2491.1252      5581.5305      46438.611      1.0294201     -1892.5153    
      1520   380.3869      -973.19009      4855.0443      4534.3105     -411.36617      2493.4554      5487.8777      46438.611      1.0294201     -5436.5807    
      1560   374.91462     -826.74364      4898.5349      4469.0795     -388.67421      2485.4465      5516.9127      46438.611      1.0294201     -5225.9235    
      1600   368.8575      -707.52697      4911.64        4396.8771     -417.73688      2497.8514      5545.958       46438.611      1.0294201     -5035.6337    
      1640   382.38621     -518.45731      4814.0131      4558.1428     -420.72343      2496.1867      5453.125       46438.611      1.0294201     -5005.3074    
      1680   371.84202     -108.46359      4882.4961      4432.4533     -396.05028      2495.7192      5496.4361      46438.611      1.0294201     -4471.5901    
      1720   376.7153      -2372.8648      4854.351       4490.5441     -389.27199      2478.8731      5479.3337      46438.611      1.0294201     -6793.1735    
      1760   376.96951      382.17879      4941.7543      4493.5744     -373.05536      2498.8354      5529.1446      46438.611      1.0294201     -4041.1128    
      1800   380.42793     -1055.4023      4914.9552      4534.7997     -439.38556      2505.9879      5561.7153      46438.611      1.0294201     -5519.2743    
      1840   377.71966     -106.04608      5003.8153      4502.5164     -429.06005      2512.5652      5633.6407      46438.611      1.0294201     -4538.1398    
      1880   384.2823       368.92327      4995.3428      4580.7447     -395.84248      2502.3668      5602.2277      46438.611      1.0294201     -4140.1752    
      1920   385.53072     -1372.6711      4973.1723      4595.6262     -409.92941      2506.1817      5590.4127      46438.611      1.0294201     -5896.4183    
      1960   386.20681      228.62402      4952.6834      4603.6854     -395.25296      2501.5106      5559.9229      46438.611      1.0294201     -4303.0563    
      2000   373.14384      1105.6165      5015.7395      4447.9713     -352.03933      2498.2737      5583.4813      46438.611      1.0294201     -3272.7853    
      2040   381.80629     -836.53757      4954.8519      4551.23       -384.05958      2499.8942      5552.7753      46438.611      1.0294201     -5316.583     
      2080   375.97778      906.52792      4951.3207      4481.7527     -409.94262      2503.2573      5571.7555      46438.611      1.0294201     -3505.1269    
      2120   377.81721      1207.6313      4964.4903      4503.6792     -357.84432      2500.7109      5535.6548      46438.611      1.0294201     -3225.607     
      2160   375.14841      106.7289       4906.7319      4471.8663     -397.75018      2501.5819      5516.4394      46438.611      1.0294201     -4295.1942    
      2200   372.70475     -1136.4066      4981.7973      4442.7372     -423.26714      2499.5951      5617.6963      46438.611      1.0294201     -5509.6562    
      2240   376.41932     -38.176555      4878.0793      4487.0159     -394.3519       2496.4732      5487.8516      46438.611      1.0294201     -4455.0122    
      2280   379.35082      2201.5623      4895.7772      4521.9602     -376.38525      2510.2988      5473.4957      46438.611      1.0294201     -2249.6711    
      2320   370.69459     -135.3033       4921.634       4418.7756     -396.53022      2508.7488      5522.4414      46438.611      1.0294201     -4484.966     
      2360   378.44122     -2652.4321      4956.1055      4511.1174     -417.15846      2496.9978      5589.69        46438.611      1.0294201     -7092.9924    
      2400   382.78976     -981.31911      4832.6166      4562.9533     -452.78051      2513.7818      5484.1675      46438.611      1.0294201     -5472.9044    
      2440   373.85942     -24.795967      4858.494       4456.5013     -405.45803      2506.2349      5472.0857      46438.611      1.0294201     -4411.5943    
      2480   376.54663     -375.9814       4916.7966      4488.5335     -441.08041      2509.3478      5561.7428      46438.611      1.0294201     -4794.311     
      2520   379.49543     -593.40029      4885.5282      4523.684      -415.53561      2507.3267      5506.3248      46438.611      1.0294201     -5046.3305    
      2560   377.59533     -1339.4361      4857.2892      4501.0343     -388.76897      2507.6238      5452.2568      46438.611      1.0294201     -5770.0709    
      2600   379.85738     -1305.0402      4844.84        4527.9985     -410.37269      2493.3451      5477.6276      46438.611      1.0294201     -5762.2176    
      2640   382.49027     -2053.2256      4911.4875      4559.3832     -416.42798      2512.037       5529.8012      46438.611      1.0294201     -6541.2968    
      2680   373.47389     -1793.3981      4985.6898      4451.9057     -389.48195      2504.3779      5584.0416      46438.611      1.0294201     -6175.6727    
      2720   387.40159      504.21159      4902.9549      4617.9275     -399.27521      2497.3878      5517.99        46438.611      1.0294201     -4041.4881    
      2760   380.91131      660.84279      4893.5409      4540.5616     -419.4681       2504.8018      5521.3409      46438.611      1.0294201     -3808.7011    
      2800   384.18977      224.58164      4934.3965      4579.6418     -401.94568      2504.4733      5546.1885      46438.611      1.0294201     -4283.4312    
      2840   388.38747      909.64615      4983.3685      4629.6794     -418.97533      2508.7342      5607.3744      46438.611      1.0294201     -3647.6217    
      2880   378.44832     -551.27411      5012.3526      4511.2021     -418.44524      2505.6068      5638.3528      46438.611      1.0294201     -4991.9177    
      2920   380.79691     -1342.4996      4991.5159      4539.1979     -398.27037      2502.9848      5601.0161      46438.611      1.0294201     -5810.7012    
      2960   382.03559     -1892.0642      4996.2002      4553.9634     -408.89908      2495.8136      5623.6201      46438.611      1.0294201     -6374.8002    
      3000   385.35107     -989.71199      4956.5801      4593.4847     -382.88319      2498.6649      5556.445       46438.611      1.0294201     -5511.3512    
      3040   377.74127     -1457.5223      4972.2525      4502.774      -424.86501      2496.037       5616.4014      46438.611      1.0294201     -5889.8696    
      3080   384.28027     -472.85415      4911.0627      4580.7205     -390.74189      2491.934       5524.5936      46438.611      1.0294201     -4981.9288    
      3120   375.0606      -136.77904      4904.777       4470.8197     -408.12658      2494.8759      5532.2566      46438.611      1.0294201     -4537.6718    
      3160   371.67986      285.08587      4967.6402      4430.5204     -397.41953      2499.5309      5579.2529      46438.611      1.0294201     -4076.1379    
      3200   378.84998     -210.15418      4894.363       4515.99       -406.47992      2509.2013      5504.9122      46438.611      1.0294201     -4655.5108    
      3240   380.82085      99.062818      4886.387       4539.4833     -390.90635      2507.3136      5485.2469      46438.611      1.0294201     -4369.4197    
      3280   379.70333     -1719.1145      4792.0253      4526.1621     -440.90852      2500.0847      5448.4214      46438.611      1.0294201     -6174.4841    
      3320   369.81241     -546.37662      4892.9157      4408.2599     -373.80152      2506.6544      5473.0437      46438.611      1.0294201     -4885.6881    
      3360   380.01784      1096.4792      4876.8648      4529.9112     -359.93319      2498.2234      5450.9264      46438.611      1.0294201     -3362.5809    
      3400   379.03762      355.44637      4915.1851      4518.2267     -363.20509      2497.7396      5494.3302      46438.611      1.0294201     -4092.1119    
      3440   378.58023      1569.0265      4998.8253      4512.7746     -367.67896      2502.4394      5577.0112      46438.611      1.0294201     -2873.1649    
      3480   380.85825     -349.36573      4973.6519      4539.9291     -409.66315      2494.7843      5602.7562      46438.611      1.0294201     -4818.287     
      3520   381.53418     -767.57222      4952.3314      4547.9864     -377.09689      2487.4551      5556.9028      46438.611      1.0294201     -5244.4248    
      3560   388.01951      797.80466      4886.8863      4625.2932     -370.12935      2495.1367      5475.5415      46438.611      1.0294201     -3755.1456    
      3600   379.03921      327.52709      5045.7753      4518.2457     -390.48677      2498.1251      5652.2088      46438.611      1.0294201     -4120.05      
      3640   380.59642      911.25469      5038.4941      4536.8081     -378.54646      2502.1231      5628.1912      46438.611      1.0294201     -3554.5944    
      3680   388.4908       771.68494      4955.1022      4630.9111     -369.83153      2502.6218      5535.5944      46438.611      1.0294201     -3786.7953    
      3720   393.23626      591.21911      4952.3664      4687.4782     -352.44505      2499.7736      5517.8072      46438.611      1.0294201     -4022.9435    
      3760   390.58921     -1370.9583      4997.5118      4655.9247     -402.98734      2500.3307      5612.1897      46438.611      1.0294201     -5954.061     
      3800   379.99822     -2363.2238      4979.7943      4529.6774     -416.52744      2509.0049      5598.7101      46438.611      1.0294201     -6822.0537    
      3840   385.20588      1.4598095      4882.4209      4591.754      -409.84336      2501.1693      5502.8964      46438.611      1.0294201     -4518.4758    
      3880   384.20682      342.58057      5009.8965      4579.8449     -377.17478      2492.8635      5607.2636      46438.611      1.0294201     -4165.6322    
      3920   384.33672      270.67222      4948.0519      4581.3934     -374.41484      2491.4528      5542.2136      46438.611      1.0294201     -4239.0649    
      3960   371.28587     -563.79616      4951.2902      4425.8238     -389.32593      2491.9652      5560.5588      46438.611      1.0294201     -4920.3969    
      4000   369.90418     -325.01708      4858.1633      4409.3537     -399.81695      2504.8543      5464.8718      46438.611      1.0294201     -4665.4053    
      4040   378.7551       394.86517      4862.0731      4514.859      -417.53849      2517.8008      5473.291       46438.611      1.0294201     -4049.3782    
      4080   381.97669      680.75458      4841.8472      4553.2612     -425.15321      2511.5307      5467.1863      46438.611      1.0294201     -3801.2903    
      4120   380.75251     -1474.8781      4901.6148      4538.6686     -420.29575      2498.8787      5535.2403      46438.611      1.0294201     -5942.5586    
      4160   378.00337     -888.88307      5017.9452      4505.8982     -353.83659      2495.3817      5589.7775      46438.611      1.0294201     -5324.3057    
      4200   387.8817       947.42775      4982.2235      4623.6504     -347.83722      2493.5377      5549.9037      46438.611      1.0294201     -3603.9054    
      4240   376.38531     -215.66576      5013.4295      4486.6106     -382.1142       2484.0925      5625.6242      46438.611      1.0294201     -4632.1024    
      4280   379.53219     -2810.7685      4974.5268      4524.1222     -404.37306      2498.8471      5593.5754      46438.611      1.0294201     -7264.1301    
      4320   385.78564     -634.73711      4907.5647      4598.6649     -400.55148      2500.1593      5520.9652      46438.611      1.0294201     -5161.4755    
      4360   383.96665      1282.3531      4964.5085      4576.982      -430.65788      2499.3346      5609.1702      46438.611      1.0294201     -3223.0416    
      4400   375.86674      582.34715      4988.5537      4480.429      -388.78621      2495.3582      5595.9027      46438.611      1.0294201     -3828.0047    
      4440   376.98182     -2091.7659      4976.2759      4493.7211     -428.19985      2493.1959      5625.1058      46438.611      1.0294201     -6515.2019    
      4480   368.36696     -1114.0594      4875.9934      4391.0298     -448.49252      2493.9977      5543.91        46438.611      1.0294201     -5436.4103    
      4520   367.80909     -717.75283      4852.2765      4384.3797     -428.11312      2492.0484      5500.4451      46438.611      1.0294201     -5033.5576    
      4560   368.49002     -1268.3564      4844.8224      4392.4966     -416.43766      2488.1837      5484.5754      46438.611      1.0294201     -5592.1512    
      4600   368.15188     -92.332809      4793.0306      4388.4659     -409.47142      2476.6762      5438.9779      46438.611      1.0294201     -4412.1599    
      4640   371.24608      922.76178      4895.8091      4425.3495     -389.52205      2490.4828      5509.1736      46438.611      1.0294201     -3433.372     
      4680   373.05741     -26.752651      4909.2574      4446.9411     -386.01341      2490.6047      5519.5625      46438.611      1.0294201     -4404.1403    
      4720   380.99802     -9.738487       4925.3496      4541.5952     -393.15845      2495.1812      5538.8261      46438.611      1.0294201     -4480.2998    
      4760   379.27555      186.73783      4906.1228      4521.0629     -386.6106       2488.27        5519.3117      46438.611      1.0294201     -4263.6123    
      4800   389.06798     -612.79679      4884.5776      4637.7912     -442.17515      2492.325       5548.8286      46438.611      1.0294201     -5178.0496    
      4840   378.17291     -167.26855      4996.0662      4507.9191     -390.80787      2489.249       5612.2293      46438.611      1.0294201     -4604.6805    
      4880   383.57318     -806.32372      5007.4772      4572.2918     -413.41256      2483.5684      5652.3662      46438.611      1.0294201     -5307.1015    
      4920   385.96596     -476.72772      4906.9391      4600.8144     -383.26554      2495.5813      5508.004       46438.611      1.0294201     -5005.582     
      4960   375.51032      271.26904      4945.156       4476.1804     -370.33498      2492.0267      5536.43        46438.611      1.0294201     -4134.9007    
      5000   377.92205     -674.55607      4982.7475      4504.9288     -395.05442      2496.3682      5594.6371      46438.611      1.0294201     -5109.0245    
      5040   378.9011       148.44036      4959.5889      4516.5994     -382.86275      2485.3085      5571.1319      46438.611      1.0294201     -4297.5162    
      5080   378.28315      70.949009      4913.9579      4509.2333     -398.88104      2496.1676      5529.5952      46438.611      1.0294201     -4367.7566    
      5120   372.44423     -1685.3515      4979.6247      4439.6319     -408.58733      2489.6679      5613.1909      46438.611      1.0294201     -6055.5443    
      5160   385.47906     -1195.7493      4955.4096      4595.0104     -406.45585      2498.0995      5577.1173      46438.611      1.0294201     -5718.8904    
      5200   379.24306      866.23046      5000.1382      4520.6757     -411.27839      2506.4364      5618.2012      46438.611      1.0294201     -3583.7385    
      5240   383.34204      328.47272      4942.2485      4569.5366     -391.98714      2495.4039      5553.6497      46438.611      1.0294201     -4169.593     
      5280   382.75112      1923.9389      5073.3139      4562.4927     -337.87622      2506.6391      5617.9998      46438.611      1.0294201     -2567.193     
      5320   391.72148      798.95927      4937.5371      4669.4217     -384.16927      2510.9347      5522.8221      46438.611      1.0294201     -3797.4292    
      5360   392.92555     -1687.9998      4983.2563      4683.7745     -389.65066      2499.1314      5586.1527      46438.611      1.0294201     -6298.5167    
      5400   384.21802     -10.299554      4959.2639      4579.9785     -378.52953      2507.3802      5542.881       46438.611      1.0294201     -4518.6438    
      5440   381.4522       1763.8048      4942.4436      4547.0092     -400.17081      2511.2816      5543.8036      46438.611      1.0294201     -2712.0859    
      5480   382.55643     -1217.2358      4901.9897      4560.1719     -396.46263      2499.5595      5513.241       46438.611      1.0294201     -5706.0832    
      5520   378.45155      297.58931      4886.1213      4511.2407     -374.89526      2491.2579      5483.0616      46438.611      1.0294201     -4143.0923    
      5560   377.10902     -42.951389      4876.2517      4495.2374     -361.73077      2500.3307      5451.4397      46438.611      1.0294201     -4467.88      
      5600   375.65605     -613.08404      4992.1703      4477.9175     -408.94439      2499.2917      5616.6254      46438.611      1.0294201     -5020.9637    
      5640   383.91757     -1135.0495      4843.317       4576.3971     -469.42457      2516.6191      5509.3833      46438.611      1.0294201     -5639.8683    
      5680   370.66118     -2138.8388      4876.9056      4418.3774     -427.26471      2508.2706      5510.0603      46438.611      1.0294201     -6488.1095    
      5720   385.22274     -871.5287       4920.4651      4591.955      -418.5135       2501.1877      5551.3585      46438.611      1.0294201     -5391.6622    
      5760   380.88494     -172.66793      4908.3955      4540.2473     -412.15043      2506.0707      5527.856       46438.611      1.0294201     -4641.9025    
      5800   384.89762      527.35155      4896.1161      4588.0795     -362.01509      2502.3183      5469.5863      46438.611      1.0294201     -3988.967     
      5840   384.41849     -576.27691      4929.0336      4582.3681     -406.73093      2506.3755      5543.0703      46438.611      1.0294201     -5086.9735    
      5880   381.62862     -530.06644      4902.9028      4549.1122     -417.64647      2510.2912      5523.3287      46438.611      1.0294201     -5008.0272    
      5920   377.7298      -3689.4696      4902.7422      4502.6372     -464.13625      2513.8497      5566.6218      46438.611      1.0294201     -8121.6823    
      5960   379.3068      -301.29956      4901.4519      4521.4355     -411.15517      2508.6265      5517.4461      46438.611      1.0294201     -4752.0165    
      6000   377.67338      1573.0341      5015.7447      4501.9647     -360.57896      2509.9815      5579.044       46438.611      1.0294201     -2858.5165    
      6040   385.02872      1120.6729      4930.5926      4589.6422     -357.61583      2511.4971      5490.838       46438.611      1.0294201     -3397.184     
      6080   383.14575      708.25556      4953.6601      4567.1967     -382.13511      2516.4045      5533.1867      46438.611      1.0294201     -3787.5069    
      6120   387.43674     -296.07848      4921.0612      4618.3465     -368.69199      2503.0743      5500.485       46438.611      1.0294201     -4842.1906    
      6160   382.16157     -570.31577      4915.4153      4555.465      -371.59449      2493.1777      5508.1725      46438.611      1.0294201     -5054.53      
      6200   383.00198      1387.5498      4865.6885      4565.4829     -401.80768      2505.7022      5475.7973      46438.611      1.0294201     -3106.5257    
      6240   372.49902      592.9948       4952.2257      4440.2849     -355.40158      2495.7099      5525.6136      46438.611      1.0294201     -3777.8408    
      6280   378.93129      1325.8215      4912.8638      4516.9593     -371.78519      2493.4364      5505.4407      46438.611      1.0294201     -3120.4892    
      6320   373.53354     -444.74576      4888.5051      4452.6166     -377.14659      2510.9196      5468.7992      46438.611      1.0294201     -4827.7202    
      6360   372.83568      1147.8004      4921.4276      4444.298      -392.44403      2498.0526      5529.0135      46438.611      1.0294201     -3226.9855    
      6400   369.1961       1419.5882      4833.6037      4400.9132     -388.77146      2494.9875      5440.3921      46438.611      1.0294201     -2912.4915    
      6440   373.75014     -2072.7233      4869.5338      4455.1987     -422.74324      2503.3754      5502.521       46438.611      1.0294201     -6458.2395    
      6480   381.18195      253.05019      4932.8484      4543.7877     -378.76583      2499.8321      5525.4784      46438.611      1.0294201     -4219.6693    
      6520   385.07305     -137.21639      4893.0809      4590.1706     -367.61732      2501.4162      5472.1064      46438.611      1.0294201     -4655.5934    
      6560   376.82119     -1195.0927      4911.795       4491.8064     -368.75978      2502.1036      5491.4287      46438.611      1.0294201     -5616.644     
      6600   384.98382      2226.6322      4917.2482      4589.107      -364.09514      2502.6134      5492.1406      46438.611      1.0294201     -2290.6977    
      6640   391.23222     -200.81363      4936.2948      4663.5896     -378.14821      2493.4982      5536.0194      46438.611      1.0294201     -4791.4613    
      6680   383.39736      572.1718       4974.0946      4570.1959     -339.61497      2498.915       5529.7456      46438.611      1.0294201     -3926.5429    
      6720   377.98353      254.9494       4970.0002      4505.6617     -391.01731      2501.7346      5572.6401      46438.611      1.0294201     -4180.2405    
      6760   382.43438     -387.19465      4969.9892      4558.717      -426.93569      2503.9305      5607.0934      46438.611      1.0294201     -4874.61      
      6800   379.19208     -1514.5082      4948.2132      4520.0679     -418.21207      2499.8745      5581.8131      46438.611      1.0294201     -5963.879     
      6840   376.02825      113.12126      5014.4416      4482.3543     -373.44861      2503.2195      5599.8762      46438.611      1.0294201     -4299.1258    
      6880   375.61772      469.87154      5010.2236      4477.4606     -407.57451      2512.9828      5619.7474      46438.611      1.0294201     -3937.5583    
      6920   382.87455     -16.173179      4954.2895      4563.964      -423.52093      2502.5297      5592.0066      46438.611      1.0294201     -4508.7534    
      6960   377.1774      -612.10477      4963.9575      4496.0525     -427.37         2505.1455      5601.9276      46438.611      1.0294201     -5037.8357    
      7000   370.82129      98.452622      5008.8254      4420.286      -422.96533      2510.0067      5637.2959      46438.611      1.0294201     -4252.6969    
      7040   379.17123      613.43363      4955.8241      4519.8194     -377.88845      2500.4611      5548.3209      46438.611      1.0294201     -3835.6925    
      7080   385.38109      1218.1105      4939.2447      4593.8425     -388.44498      2499.6931      5541.447       46438.611      1.0294201     -3303.8809    
      7120   383.00887     -70.418783      4922.0028      4565.5651     -399.31224      2500.6608      5534.3343      46438.611      1.0294201     -4564.5751    
      7160   384.82572      959.9856       4994.4784      4587.2224     -374.14464      2496.7976      5586.6936      46438.611      1.0294201     -3555.4892    
      7200   373.24414      256.59712      4971.2402      4449.167      -374.26669      2504.2487      5554.8122      46438.611      1.0294201     -4122.9817    
      7240   378.97761     -2346.9713      4925.9293      4517.5114     -412.20066      2498.5294      5554.3649      46438.611      1.0294201     -6793.8255    
      7280   379.6528       875.82775      4937.5511      4525.5598     -375.42208      2498.8258      5529.1193      46438.611      1.0294201     -3578.949     
      7320   374.89683      77.028215      4918.0627      4468.8675     -407.15         2496.8233      5543.5459      46438.611      1.0294201     -4321.9429    
      7360   375.89413     -1156.1877      4969.0336      4480.7556     -415.96376      2500.9641      5599.6891      46438.611      1.0294201     -5566.861     
      7400   388.13022     -1666.8249      4951.6796      4626.6129     -418.21945      2505.6136      5578.8765      46438.611      1.0294201     -6221.0743    
      7440   387.37373      61.625749      4957.4353      4617.5953     -407.43294      2495.3934      5584.1865      46438.611      1.0294201     -4483.747     
      7480   389.34488     -360.53746      4961.421       4641.092      -394.09202      2505.4516      5564.7096      46438.611      1.0294201     -4929.0394    
      7520   386.89333     -313.67623      4977.3121      4611.8688     -404.45548      2496.3681      5600.5909      46438.611      1.0294201     -4853.4121    
      7560   374.20434      847.80617      4952.0026      4460.6129     -362.79639      2484.5777      5545.4848      46438.611      1.0294201     -3543.0394    
      7600   382.51344      123.55056      4882.2028      4559.6594     -377.34371      2477.0297      5497.7892      46438.611      1.0294201     -4364.7924    
      7640   381.30715     -714.35266      4942.4265      4545.2801     -389.89398      2480.3797      5565.4893      46438.611      1.0294201     -5188.5413    
      7680   382.4535       615.00962      4950.6565      4558.9449     -360.73792      2481.1458      5545.1049      46438.611      1.0294201     -3872.63      
      7720   377.19594      472.16796      4963.125       4496.2735     -410.89913      2499.908       5587.9206      46438.611      1.0294201     -3953.7805    
      7760   383.69715      1246.0594      5001.8389      4573.7696     -399.7974       2502.2978      5613.0305      46438.611      1.0294201     -3256.1731    
      7800   379.44951     -1982.6121      4987.1911      4523.1366     -415.56144      2507.3146      5607.8311      46438.611      1.0294201     -6435.0035    
      7840   383.71099     -223.08518      4952.8804      4573.9345     -407.94425      2504.5312      5568.8925      46438.611      1.0294201     -4725.48      
      7880   382.23773     -386.75937      4944.5101      4556.3729     -372.03645      2486.7848      5544.7771      46438.611      1.0294201     -4871.8673    
      7920   379.75547      633.01661      4882.2747      4526.7837     -375.96029      2498.9192      5474.7946      46438.611      1.0294201     -3822.9648    
      7960   376.99884      120.55591      4901.9007      4493.924      -386.7523       2486.9782      5516.9141      46438.611      1.0294201     -4303.0799    
      8000   372.54055     -993.53027      4901.05        4440.7799     -394.80693      2480.6829      5529.3091      46438.611      1.0294201     -5364.8532    
      8040   375.79838      750.19839      4806.4428      4479.6141     -417.18323      2492.7071      5445.3013      46438.611      1.0294201     -3659.3513    
      8080   375.41556     -1305.4727      4959.0491      4475.0509     -391.75686      2488.3762      5576.9956      46438.611      1.0294201     -5710.5305    
      8120   377.48125     -1468.8479      4979.2454      4499.6744     -413.53105      2498.1443      5608.9904      46438.611      1.0294201     -5898.1441    
      8160   380.1732       344.93581      4920.3354      4531.7631     -406.45014      2492.0286      5550.1965      46438.611      1.0294201     -4115.9472    
      8200   375.29552      2152.1106      4962.3505      4473.62       -370.49708      2499.6816      5546.3354      46438.611      1.0294201     -2251.5386    
      8240   379.42971      238.54683      4891.989       4522.9006     -419.9016       2504.3884      5522.2641      46438.611      1.0294201     -4213.6123    
      8280   386.62627     -2491.8872      4875.5122      4608.6854     -422.36512      2498.6962      5515.1872      46438.611      1.0294201     -7028.4893    
      8320   382.30857     -191.84312      4957.2903      4557.2173     -419.7633       2502.8557      5589.5721      46438.611      1.0294201     -4677.7822    
      8360   381.57413      222.6587       5004.1145      4548.4626     -420.85398      2512.21        5628.9493      46438.611      1.0294201     -4254.6626    
      8400   381.63463     -612.97591      4944.2508      4549.1838     -423.59719      2503.1284      5579.5267      46438.611      1.0294201     -5091.0071    
      8440   382.20504     -1914.0469      4961.4057      4555.9833     -425.49359      2495.2203      5606.7173      46438.611      1.0294201     -6398.7712    
      8480   386.26888      824.32007      5064.4227      4604.4252     -375.92333      2480.3492      5676.7142      46438.611      1.0294201     -3708.0886    
      8520   394.01893      172.20846      4908.7594      4696.8078     -413.71223      2483.2712      5555.1399      46438.611      1.0294201     -4451.1378    
      8560   392.57756     -1607.3768      5044.4824      4679.6264     -415.46786      2491.3574      5684.6784      46438.611      1.0294201     -6213.8104    
      8600   388.46669     -155.62623      4960.2947      4630.6237     -428.0322       2497.4026      5606.3659      46438.611      1.0294201     -4713.8235    
      8640   385.04599      11.502565      5007.0508      4589.8481     -410.20472      2489.7215      5641.7067      46438.611      1.0294201     -4506.5569    
      8680   389.75619      1499.327       4952.1386      4645.9948     -400.40401      2487.4923      5580.2127      46438.611      1.0294201     -3074.0011    
      8720   395.86232     -322.8739       4898.0706      4718.7815     -435.4279       2487.4041      5561.5378      46438.611      1.0294201     -4967.8502    
      8760   379.33824      167.64143      4998.3046      4521.8103     -409.6431       2495.2894      5627.005       46438.611      1.0294201     -4283.4444    
      8800   384.19391     -570.39469      4939.0154      4579.691      -401.96369      2479.9541      5575.7048      46438.611      1.0294201     -5078.456     
      8840   388.00278     -272.00112      4806.3266      4625.0938     -426.77992      2483.1244      5464.5883      46438.611      1.0294201     -4824.7551    
      8880   379.92788     -371.19306      4899.6838      4528.8388     -405.81968      2496.9332      5522.8998      46438.611      1.0294201     -4829.1975    
      8920   382.13177     -2139.8893      5004.3541      4555.1098     -423.81332      2506.3387      5636.8653      46438.611      1.0294201     -6623.7539    
      8960   381.19294      1440.6195      4916.2643      4543.9187     -381.69473      2508.555       5503.5651      46438.611      1.0294201     -3032.229     
      9000   377.06601     -651.47391      4969.4535      4494.7247     -370.60083      2497.6395      5555.4727      46438.611      1.0294201     -5075.8978    
      9040   386.36446     -86.339886      4908.3083      4605.5646     -391.31883      2498.9073      5514.3797      46438.611      1.0294201     -4619.8701    
      9080   388.52647     -90.958704      4952.4942      4631.3363     -354.8292       2495.3627      5524.9514      46438.611      1.0294201     -4649.8575    
      9120   384.97771      1435.5153      4942.0753      4589.0341     -354.2008       2500.3494      5509.6172      46438.611      1.0294201     -3081.743     
      9160   382.30756      2304.4575      5037.7516      4557.2053     -374.62545      2502.6902      5623.3047      46438.611      1.0294201     -2181.4698    
      9200   380.52695     -754.94332      4945.6373      4535.9799     -379.04849      2488.4501      5550.5223      46438.611      1.0294201     -5219.9772    
      9240   380.67947     -457.33683      4939.8941      4537.798      -363.0643       2480.3877      5536.2454      46438.611      1.0294201     -4924.1604    
      9280   379.46338      994.96978      4927.5454      4523.3019     -370.40558      2494.0798      5516.8478      46438.611      1.0294201     -3457.5844    
      9320   380.87223      443.39951      4992.6071      4540.0957     -373.84103      2492.8596      5585.9073      46438.611      1.0294201     -4025.6858    
      9360   385.37799     -1085.549       4978.4985      4593.8056     -390.16819      2498.3499      5582.7284      46438.611      1.0294201     -5607.5041    
      9400   382.60047      1522.0718      4955.95        4560.6968     -388.30336      2512.1562      5545.1727      46438.611      1.0294201     -2967.2924    
      9440   377.05748      195.26225      4898.2881      4494.6229     -383.93932      2521.2999      5473.9089      46438.611      1.0294201     -4229.0615    
      9480   378.13594     -205.1295       4939.6573      4507.4785     -385.12834      2507.0128      5531.3412      46438.611      1.0294201     -4642.1077    
      9520   373.10926      502.67314      4965.4763      4447.5591     -356.1958       2496.6258      5538.5696      46438.611      1.0294201     -3875.3229    
      9560   378.20164     -1033.5105      4979.7121      4508.2616     -352.55669      2491.2563      5553.5141      46438.611      1.0294201     -5471.2596    
      9600   379.73788     -2674.1424      5014.16        4526.5741     -413.67766      2501.4739      5639.543       46438.611      1.0294201     -7129.9176    
      9640   383.86293     -205.94126      4948.9334      4575.7457     -381.4866       2488.2058      5556.0765      46438.611      1.0294201     -4710.1189    
      9680   381.9178       749.64709      4978.7831      4552.5592     -351.39309      2485.2774      5560.027       46438.611      1.0294201     -3731.7067    
      9720   379.28261      611.18023      4927.0487      4521.1471     -349.74655      2482.2215      5508.3664      46438.611      1.0294201     -3839.2528    
      9760   382.93007      782.43732      4863.8111      4564.6258     -403.34432      2493.1734      5488.2506      46438.611      1.0294201     -3710.7944    
      9800   383.25558     -138.8783       4917.1556      4568.5059     -417.90381      2495.5486      5554.4032      46438.611      1.0294201     -4635.9294    
      9840   380.76821     -59.201825      4993.6715      4538.8559     -417.77296      2498.6315      5626.8108      46438.611      1.0294201     -4527.0667    
      9880   381.41227      89.088608      4987.782       4546.5332     -394.93288      2497.4376      5599.1415      46438.611      1.0294201     -4386.3335    
      9920   377.88478     -377.99728      5017.1575      4504.4845     -390.41432      2499.1835      5621.4028      46438.611      1.0294201     -4812.0284    
      9960   387.04401      481.7323       4850.5955      4613.665      -416.27136      2495.8347      5484.9448      46438.611      1.0294201     -4059.7716    
     10000   381.62809     -1044.6831      4958.8489      4549.1059     -403.22704      2499.5573      5577.36        46438.611      1.0294201     -5522.6376    
     10040   381.90766      386.78441      5011.9762      4552.4383     -368.76999      2497.2744      5598.0768      46438.611      1.0294201     -4094.4505    
     10080   392.7717       294.99525      5022.9981      4681.9405     -369.69489      2511.4098      5593.7112      46438.611      1.0294201     -4313.7163    
     10120   380.75854      3383.6893      5069.2464      4538.7405     -367.34199      2512.3893      5637.978       46438.611      1.0294201     -1084.062     
     10160   380.38496      330.17314      4952.5896      4534.2874     -363.12497      2496.9189      5532.0938      46438.611      1.0294201     -4133.1947    
     10200   381.25254     -1357.685       4917.8226      4544.6292     -397.52891      2494.838       5532.4167      46438.611      1.0294201     -5831.2329    
     10240   384.82332     -2136.6657      4806.8669      4587.1938     -455.27111      2493.3709      5482.7801      46438.611      1.0294201     -6652.1125    
     10280   379.28004     -1780.91        4902.7227      4521.1165     -407.04866      2500.3413      5524.5789      46438.611      1.0294201     -6231.3129    
     10320   374.53791     -1071.0389      4959.4543      4464.5891     -353.89413      2490.5998      5536.8703      46438.611      1.0294201     -5465.7985    
     10360   375.45069      256.34851      4932.1269      4475.4696     -360.10444      2481.5093      5525.7011      46438.611      1.0294201     -4149.1215    
     10400   381.17187      352.87348      4835.4743      4543.6675     -399.53183      2482.3199      5467.7203      46438.611      1.0294201     -4119.7278    
     10440   384.47166      646.44632      4886.4719      4583.0019     -327.84572      2496.3832      5431.4485      46438.611      1.0294201     -3864.8741    
     10480   379.13234      888.14118      4989.0924      4519.3558     -373.95277      2495.0346      5582.4813      46438.611      1.0294201     -3560.5286    
     10520   379.46149      1313.9758      5029.2196      4523.2793     -352.25114      2504.3341      5590.7116      46438.611      1.0294201     -3138.5561    
     10560   377.84913      504.42102      4989.393       4504.0596     -383.46382      2497.1321      5589.0918      46438.611      1.0294201     -3929.1918    
     10600   382.12057     -1149.3342      4924.5124      4554.9763     -416.76868      2497.2944      5559.2704      46438.611      1.0294201     -5633.0673    
     10640   378.3833       325.66873      4959.8321      4510.4271     -386.70615      2510.9055      5550.2563      46438.611      1.0294201     -4114.2119    
     10680   385.41903     -307.83465      4891.6497      4594.2948     -399.89845      2507.7932      5497.6176      46438.611      1.0294201     -4830.2713    
     10720   377.35728     -428.32507      4919.4336      4498.1967     -385.37272      2499.3878      5519.4899      46438.611      1.0294201     -4856.1667    
     10760   374.115       -825.82386      4824.1449      4459.5478     -424.51226      2493.4531      5470.1257      46438.611      1.0294201     -5215.6211    
     10800   378.65019     -1365.5548      4921.8656      4513.6085     -392.12955      2496.6731      5531.6273      46438.611      1.0294201     -5808.5671    
     10840   373.25576     -2511.1106      4947.9279      4449.3055     -439.136        2498.6786      5601.9049      46438.611      1.0294201     -6890.8257    
     10880   381.98529      220.56879      4918.6921      4553.3637     -401.62936      2506.7643      5525.8142      46438.611      1.0294201     -4261.577     
     10920   381.55616      1503.1701      4977.4199      4548.2485     -376.24486      2505.0459      5560.9797      46438.611      1.0294201     -2973.9404    
     10960   378.07911      1506.1278      4936.5119      4506.8011     -364.73109      2516.5788      5495.7546      46438.611      1.0294201     -2930.1836    
     11000   380.08239      1474.7193      4860.3016      4530.6807     -378.68639      2520.6651      5429.5925      46438.611      1.0294201     -2985.0983    
     11040   383.19069      65.202554      4918.6712      4567.7324     -421.88686      2503.3451      5549.3112      46438.611      1.0294201     -4431.0872    
     11080   387.37879     -763.66755      4889.6578      4617.6557     -409.21118      2511.7998      5497.5098      46438.611      1.0294201     -5309.0997    
     11120   380.31107      1040.7199      4965.1865      4533.4065     -354.85157      2512.2972      5519.4849      46438.611      1.0294201     -3421.7809    
     11160   387.2318      -1540.324       4984.8791      4615.9035     -409.9323       2516.258       5590.2533      46438.611      1.0294201     -6084.0314    
     11200   373.80565     -1511.221       5006.3969      4455.8603     -389.89796      2508.3235      5600.322       46438.611      1.0294201     -5897.3883    
     11240   378.22998      228.0217       5035.6609      4508.5995     -350.35848      2504.2568      5594.9023      46438.611      1.0294201     -4210.06      
     11280   382.77022     -153.7999       4993.7012      4562.7203     -350.5584       2513.9236      5543.0369      46438.611      1.0294201     -4645.1559    
     11320   386.48846     -2326.5814      4965.2356      4607.0427     -392.89952      2519.0557      5553.1387      46438.611      1.0294201     -6861.5665    
     11360   383.31175     -691.7248       4971.2802      4569.1755     -399.18977      2516.4778      5569.4904      46438.611      1.0294201     -5189.435     
     11400   380.85441     -1059.8042      4957.1484      4539.8834     -371.77071      2509.658       5536.0508      46438.611      1.0294201     -5528.6805    
     11440   385.03401      1402.6385      4938.3645      4589.7053     -394.47213      2504.4155      5543.742       46438.611      1.0294201     -3115.2804    
     11480   384.90814     -1847.5356      4876.4327      4588.2049     -424.56185      2500.6844      5515.1459      46438.611      1.0294201     -6363.9777    
     11520   379.87014      279.5992       4971.3237      4528.1506     -393.1562       2495.8946      5584.0241      46438.611      1.0294201     -4177.7278    
     11560   385.91653     -1782.1039      4918.862       4600.2252     -416.44089      2500.4972      5549.3258      46438.611      1.0294201     -6310.3782    
     11600   379.83543     -134.9969       4941.9581      4527.7369     -394.86733      2494.5634      5557.4469      46438.611      1.0294201     -4591.9167    
     11640   375.59109     -780.35491      5006.0306      4477.1432     -372.31079      2486.3689      5606.7905      46438.611      1.0294201     -5187.4723    
     11680   380.03601     -292.21544      4965.3357      4530.1279     -384.66279      2501.3878      5563.6328      46438.611      1.0294201     -4751.4888    
     11720   382.36399     -1462.5792      4924.777       4557.8779     -407.03682      2494.347       5552.4204      46438.611      1.0294201     -5949.1686    
     11760   374.71793     -740.1531       4939.7547      4466.7349     -422.59691      2507.1825      5569.5701      46438.611      1.0294201     -5137.025     
     11800   376.36716      440.43401      4857.4342      4486.3941     -395.17045      2501.7576      5466.2688      46438.611      1.0294201     -3975.7896    
     11840   376.05339      980.83058      5033.0935      4482.654      -395.3599       2511.3092      5632.8299      46438.611      1.0294201     -3431.7114    
     11880   386.25865      1912.6723      4915.8591      4604.3033     -399.733        2515.8298      5514.6162      46438.611      1.0294201     -2619.6164    
     11920   386.89427     -242.97409      4984.9754      4611.8801     -392.70212      2515.4133      5576.1593      46438.611      1.0294201     -4782.721     
     11960   384.7589       917.92086      4993.6835      4586.4259     -384.67803      2524.0566      5568.5609      46438.611      1.0294201     -3596.77      
     12000   382.91061     -1164.148       4934.7702      4564.3938     -392.6418       2507.3737      5534.9619      46438.611      1.0294201     -5657.1513    
     12040   377.06796     -2306.547       4962.5268      4494.7479     -429.37784      2512.1426      5593.9076      46438.611      1.0294201     -6730.9937    
     12080   372.40806     -154.45956      4912.3516      4439.2007     -363.72368      2503.2373      5487.102       46438.611      1.0294201     -4524.2279    
     12120   385.52432      1690.2973      4879.455       4595.5499     -391.43622      2496.0165      5488.9446      46438.611      1.0294201     -2833.3748    
     12160   383.13745     -681.80503      4939.8268      4567.0978     -421.81082      2497.3919      5577.6343      46438.611      1.0294201     -5177.4701    
     12200   384.38587      1869.7115      4832.7319      4581.9793     -333.44836      2496.4678      5384.4304      46438.611      1.0294201     -2640.6023    
     12240   378.67563      2948.5         4868.3101      4513.9118     -383.29313      2493.9501      5472.4778      46438.611      1.0294201     -1494.8109    
     12280   373.03142      876.00828      4967.2896      4446.6313     -379.1374       2496.7722      5562.4476      46438.611      1.0294201     -3501.0745    
     12320   382.05685     -3028.8976      4983.1734      4554.2168     -423.50805      2496.5056      5623.8786      46438.611      1.0294201     -7511.8831    
     12360   377.85046     -3.2587029      5032.6449      4504.0754     -399.6853       2509.4872      5636.6692      46438.611      1.0294201     -4436.8871    
     12400   391.31492     -648.80057      4997.816       4664.5754     -431.50985      2509.3133      5634.1987      46438.611      1.0294201     -5240.4185    
     12440   382.75403     -2364.7545      5005.8778      4562.5274     -423.70677      2507.3122      5637.6697      46438.611      1.0294201     -6855.9206    
     12480   388.01298     -20.469752      4927.1408      4625.2154     -442.58812      2511.9273      5572.5251      46438.611      1.0294201     -4573.3434    
     12520   387.55666      158.34724      4911.8887      4619.776      -411.55117      2508.4174      5528.6622      46438.611      1.0294201     -4389.1721    
     12560   384.53554      409.55697      4912.7109      4583.7634     -400.54743      2509.2096      5517.4017      46438.611      1.0294201     -4102.513     
     12600   385.70311     -391.76022      5049.8651      4597.6811     -393.13734      2509.9968      5645.804       46438.611      1.0294201     -4917.5303    
     12640   387.85023     -754.54302      5007.3376      4623.2753     -422.06857      2515.1231      5628.4346      46438.611      1.0294201     -5305.5069    
     12680   387.43135     -444.62016      5043.0822      4618.2822     -379.80764      2512.9527      5625.2659      46438.611      1.0294201     -4990.669     
     12720   387.45775      686.70934      5034.0894      4618.5969     -393.54109      2515.1612      5626.6421      46438.611      1.0294201     -3859.6493    
     12760   384.58874     -1657.943       5108.2296      4584.3976     -409.47898      2510.6857      5720.8489      46438.611      1.0294201     -6170.6372    
     12800   384.58873     -642.47257      4980.264       4584.3974     -398.58448      2516.0843      5576.6352      46438.611      1.0294201     -5155.1666    
     12840   380.93657      351.93089      5059.7491      4540.8627     -419.94144      2516.4712      5676.9022      46438.611      1.0294201     -4117.9094    
     12880   382.44993      974.8086       4966.4823      4558.9023     -382.55787      2505.6143      5557.057       46438.611      1.0294201     -3512.7892    
     12920   381.13246      377.67424      4984.2606      4543.1978     -357.06475      2513.3046      5542.2135      46438.611      1.0294201     -4094.4646    
     12960   379.69378      998.33787      4937.9884      4526.0483     -374.04535      2519.2221      5507.0392      46438.611      1.0294201     -3456.9197    
     13000   375.43278      186.74984      5051.7044      4475.2562     -387.13615      2520.1025      5630.8883      46438.611      1.0294201     -4218.51      
     13040   381.68055      1376.4465      4969.3403      4549.7312     -349.24664      2518.3613      5512.4637      46438.611      1.0294201     -3102.1235    
     13080   384.80365      461.13688      4987.2954      4586.9594     -323.12135      2504.2173      5518.1285      46438.611      1.0294201     -4054.0791    
     13120   381.27909     -1044.4909      4931.5151      4544.9457     -387.56145      2514.5481      5517.2211      46438.611      1.0294201     -5518.3503    
     13160   383.09118      1.5981451      5011.128       4566.5462     -402.71237      2521.5496      5604.1961      46438.611      1.0294201     -4493.5239    
     13200   384.59446     -12.033174      5012.6524      4584.4657     -371.15437      2514.3114      5582.5046      46438.611      1.0294201     -4524.7945    
     13240   387.9871       203.04701      4995.8358      4624.9069     -390.28657      2500.6581      5597.8484      46438.611      1.0294201     -4349.5229    
     13280   384.58915      606.13645      4981.1402      4584.4024     -396.9398       2506.9948      5583.8021      46438.611      1.0294201     -3906.5625    
     13320   381.48204     -366.3999       5002.0012      4547.3649     -400.03371      2516.4711      5598.9182      46438.611      1.0294201     -4842.6406    
     13360   374.05598     -2025.2466      4927.4767      4458.8443     -426.86244      2517.2041      5552.6965      46438.611      1.0294201     -6414.3513    
     13400   378.25161      497.84363      5027.2485      4508.8573     -388.2262       2518.4693      5611.4836      46438.611      1.0294201     -3940.4918    
     13440   380.99053      479.50615      4904.6191      4541.5059     -406.21199      2507.5623      5517.3447      46438.611      1.0294201     -3990.9673    
     13480   384.46411      830.17052      4974.7442      4582.912      -377.74859      2512.1021      5553.6488      46438.611      1.0294201     -3681.0613    
     13520   383.91939      1555.6013      4963.7072      4576.4188     -360.81501      2508.0727      5530.2061      46438.611      1.0294201     -2949.2389    
     13560   381.67839      940.07103      5028.8371      4549.7054     -368.16181      2506.3019      5604.1185      46438.611      1.0294201     -3538.4737    
     13600   389.14747      3.5989934      4950.743       4638.7387     -374.4391       2501.6109      5536.7271      46438.611      1.0294201     -4562.5865    
     13640   376.80647     -978.29828      4965.5767      4491.6308     -404.63912      2504.6749      5578.3435      46438.611      1.0294201     -5399.6767    
     13680   376.10012      609.13576      4949.0838      4483.211      -386.48513      2516.3262      5531.114       46438.611      1.0294201     -3803.9545    
     13720   377.94526      551.20786      4874.9558      4505.2055     -373.04405      2522.7382      5436.6853      46438.611      1.0294201     -3883.533     
     13760   379.73039      495.19789      4997.8244      4526.4848     -382.73792      2519.3289      5574.8452      46438.611      1.0294201     -3960.4894    
     13800   379.09434     -973.64739      4977.302       4518.9028     -404.58122      2519.3508      5576.0143      46438.611      1.0294201     -5421.8713    
     13840   381.1085       429.5635       4971.0363      4542.9121     -373.45406      2521.3843      5536.1535      46438.611      1.0294201     -4042.2942    
     13880   380.9242      -315.53144      4906.8704      4540.7153     -398.57785      2520.5168      5498.6269      46438.611      1.0294201     -4785.2266    
     13920   374.20304      1585.0684      4966.3931      4460.5973     -353.85539      2521.3543      5511.9708      46438.611      1.0294201     -2805.7618    
     13960   376.08777      1223.5283      4959.3151      4483.0638     -374.56153      2507.3794      5540.0308      46438.611      1.0294201     -3189.417     
     14000   383.10337      911.66459      4933.5233      4566.6915     -376.61474      2503.0651      5521.5165      46438.611      1.0294201     -3583.6005    
     14040   371.95732     -2155.4756      4938.7062      4433.8278     -431.0799       2494.8717      5589.1875      46438.611      1.0294201     -6519.9551    
     14080   377.42993     -431.84762      4918.4788      4499.0626     -395.99701      2508.5219      5519.4837      46438.611      1.0294201     -4860.5416    
     14120   381.46371      808.28131      4952.6777      4547.1463     -365.6902       2499.7787      5531.5367      46438.611      1.0294201     -3667.7443    
     14160   373.98598      944.02153      5013.6183      4458.0099     -360.40283      2510.8741      5575.4532      46438.611      1.0294201     -3444.2618    
     14200   382.46136     -350.21243      4860.9417      4559.0386     -437.10752      2515.1074      5493.7109      46438.611      1.0294201     -4837.9443    
     14240   371.95401     -1102.5482      4975.4281      4433.7883     -433.0758       2501.5697      5619.1271      46438.611      1.0294201     -5466.9889    
     14280   380.69712      65.377685      4884.0514      4538.0084     -402.56665      2500.4956      5497.469       46438.611      1.0294201     -4401.653     
     14320   377.4344       1352.6052      4924.2863      4499.1159     -379.21336      2515.8169      5500.4185      46438.611      1.0294201     -3076.1412    
     14360   383.46739      1378.2973      4899.781       4571.0307     -380.19857      2509.1147      5484.655       46438.611      1.0294201     -3121.2391    
     14400   382.95657     -570.27297      4889.9311      4564.9417     -410.46972      2505.4379      5508.7161      46438.611      1.0294201     -5063.8156    
     14440   382.15491      604.30407      5005.8993      4555.3857     -359.88152      2510.7926      5569.7125      46438.611      1.0294201     -3879.8321    
     14480   376.25731      1528.1834      4959.9312      4485.0848     -363.47233      2499.9567      5537.4959      46438.611      1.0294201     -2886.7513    
     14520   379.07909     -1553.7214      4958.5503      4518.7211     -404.03947      2509.6839      5566.8175      46438.611      1.0294201     -6001.7664    
     14560   383.28984      302.32978      4952.5349      4568.9144     -375.98587      2521.1534      5519.3187      46438.611      1.0294201     -4195.1234    
     14600   380.57373      1992.8815      4904.8559      4536.5376     -368.1812       2516.6593      5467.8359      46438.611      1.0294201     -2472.7013    
     14640   380.89983      1684.4982      5033.0584      4540.4247     -353.70356      2511.2866      5588.9411      46438.611      1.0294201     -2784.911     
     14680   379.18875      786.09927      4945.7893      4520.0283     -416.71267      2512.567       5564.0689      46438.611      1.0294201     -3663.2325    
     14720   378.32362      234.70358      4966.676       4509.7157     -410.16432      2518.2337      5572.7315      46438.611      1.0294201     -4204.4769    
     14760   379.30116      619.36315      4988.6125      4521.3683     -397.4493       2514.4363      5586.411       46438.611      1.0294201     -3831.2876    
     14800   383.68362     -489.42151      4929.0721      4573.6082     -395.61207      2515.3056      5523.9914      46438.611      1.0294201     -4991.4952    
     14840   379.49117     -1148.3837      4909.9612      4523.6331     -365.65633      2499.8747      5489.9469      46438.611      1.0294201     -5601.2639    
     14880   373.50765      426.70514      4977.2632      4452.3081     -386.02836      2498.4662      5580.1195      46438.611      1.0294201     -3955.9656    
     14920   376.49836     -1696.5909      4976.4883      4487.9581     -393.91969      2505.8901      5578.8474      46438.611      1.0294201     -6114.3541    
     14960   376.08116      672.29076      4847.9454      4482.985      -357.74458      2509.717       5410.3526      46438.611      1.0294201     -3740.5771    
     15000   380.43357      914.22893      4863.7797      4534.8669     -416.78297      2506.3324      5488.8173      46438.611      1.0294201     -3549.7093    
     15040   370.37377      28.01215       4900.0165      4414.9514     -382.67415      2501.6674      5494.7692      46438.611      1.0294201     -4317.8862    
     15080   373.35776      328.6827       4899.7958      4450.5213     -380.8905       2506.14        5487.8778      46438.611      1.0294201     -4052.2292    
     15120   374.7483      -1143.9111      5004.2592      4467.097      -426.10864      2505.8713      5638.6621      46438.611      1.0294201     -5541.1394    
     15160   379.51968      284.18434      4884.4199      4523.973      -404.68143      2513.133       5490.6961      46438.611      1.0294201     -4169.0304    
     15200   377.09066     -1061.516       4992.7465      4495.0184     -384.44692      2511.87        5580.346       46438.611      1.0294201     -5486.2291    
     15240   377.14693     -2657.2112      4975.3198      4495.6892     -420.2138       2514.6371      5596.2317      46438.611      1.0294201     -7082.5845    
     15280   379.19576      331.91071      4922.431       4520.1119     -392.70807      2517.5862      5511.9891      46438.611      1.0294201     -4117.5033    
     15320   377.45632     -1913.6837      4954.995       4499.3772     -418.16902      2511.7391      5576.7386      46438.611      1.0294201     -6342.6873    
     15360   373.27433     -100.6443       5033.8828      4449.5268     -377.17244      2509.3221      5615.9974      46438.611      1.0294201     -4480.5773    
     15400   381.81443     -898.5914       4921.6638      4551.3271     -400.26959      2513.7478      5521.9408      46438.611      1.0294201     -5378.7324    
     15440   377.55959      535.76397      4995.5945      4500.6082     -367.29847      2515.7821      5560.4291      46438.611      1.0294201     -3894.4514    
     15480   383.28234      3477.2986      4910.088       4568.8249     -334.78042      2510.6453      5446.6049      46438.611      1.0294201     -1020.0665    
     15520   376.62261      635.46787      4918.1937      4489.4392     -358.88863      2511.5044      5478.2622      46438.611      1.0294201     -3783.7532    
     15560   387.63387     -71.996766      4944.7702      4620.6963     -372.09954      2506.4797      5524.3033      46438.611      1.0294201     -4620.422     
     15600   381.30028      242.49069      4958.6872      4545.1983     -391.73174      2500.0888      5564.5073      46438.611      1.0294201     -4231.6174    
     15640   380.85247     -1504.5801      4980.3974      4539.8602     -456.31378      2498.5534      5652.3014      46438.611      1.0294201     -5973.4336    
     15680   373.61136      1743.5913      4943.0998      4453.5443     -383.0041       2505.4262      5534.496       46438.611      1.0294201     -2640.2963    
     15720   374.89564      527.91793      5006.3962      4468.8533     -370.0139       2502.608       5587.7899      46438.611      1.0294201     -3871.0392    
     15760   379.051       -471.82638      4866.3731      4518.3863     -385.70201      2508.6307      5457.1851      46438.611      1.0294201     -4919.5418    
     15800   375.89413     -1386.7257      4972.7385      4480.7556     -413.87135      2511.5282      5589.3755      46438.611      1.0294201     -5797.399     
     15840   380.68642     -854.69726      5002.9352      4537.8809     -396.77997      2492.2541      5621.5817      46438.611      1.0294201     -5321.6024    
     15880   375.28916      555.91097      4960.2591      4473.5442     -404.65009      2502.47        5576.2629      46438.611      1.0294201     -3847.6637    
     15920   376.03132     -29.982128      4937.9624      4482.3909     -363.06963      2498.065       5516.2289      46438.611      1.0294201     -4442.2651    
     15960   386.40581      698.24248      4950.7054      4606.0575     -381.12255      2512.6971      5531.9415      46438.611      1.0294201     -3835.7729    
     16000   383.01975      303.0411       4942.3951      4565.6948     -398.16815      2513.0725      5541.2671      46438.611      1.0294201     -4191.2429    
     16040   376.71373      866.80944      4932.5935      4490.5254     -394.72998      2518.2784      5523.0147      46438.611      1.0294201     -3553.4809    
     16080   382.92315     -24.175124      4930.1832      4564.5432     -434.73299      2506.4813      5572.3183      46438.611      1.0294201     -4517.3256    
     16120   380.82917     -2410.5241      5004.0081      4539.5825     -407.97762      2498.7539      5628.0903      46438.611      1.0294201     -6879.1042    
     16160   384.06901      225.35795      4987.5382      4578.2023     -357.50373      2502.0582      5557.0904      46438.611      1.0294201     -4281.2379    
     16200   383.8651       1459.6954      4902.7685      4575.7715     -349.40004      2505.4509      5460.2566      46438.611      1.0294201     -3044.5077    
     16240   372.6203       532.33128      4950.4954      4441.7306     -389.31096      2511.2262      5541.3166      46438.611      1.0294201     -3839.9274    
     16280   374.37438     -467.46233      4891.0051      4462.6398     -357.60855      2509.6121      5452.7844      46438.611      1.0294201     -4860.3031    
     16320   377.60327     -622.60416      4894.5252      4501.1289     -408.51444      2505.4986      5512.4932      46438.611      1.0294201     -5053.3321    
     16360   377.99648      82.075383      4857.3891      4505.816      -380.41141      2498.468       5453.9581      46438.611      1.0294201     -4353.2664    
     16400   373.76936     -1167.843       4932.2195      4455.4277     -414.47187      2504.7021      5555.8012      46438.611      1.0294201     -5553.5845    
     16440   376.59891     -767.57243      4931.0126      4489.1567     -410.87073      2498.1215      5558.9818      46438.611      1.0294201     -5186.5155    
     16480   376.76218      448.68892      4930.5445      4491.103      -387.09932      2502.4477      5530.0724      46438.611      1.0294201     -3972.1699    
     16520   383.47063      115.09545      4936.3515      4571.0694     -368.62013      2494.4626      5525.7797      46438.611      1.0294201     -4384.4791    
     16560   379.50248     -723.59858      4923.226       4523.768      -406.97735      2492.2196      5553.3064      46438.611      1.0294201     -5176.6116    
     16600   369.83702     -72.18843       4884.4402      4408.5533     -413.75361      2490.9743      5522.5962      46438.611      1.0294201     -4411.7887    
     16640   383.42862     -267.77799      4883.657       4570.5685     -377.45145      2485.7371      5491.2891      46438.611      1.0294201     -4766.8595    
     16680   379.74224     -1721.9008      4931.8132      4526.626      -415.52389      2494.4748      5569.3184      46438.611      1.0294201     -6177.7271    
     16720   380.29431      293.85737      4957.7074      4533.2068     -449.59311      2507.8251      5614.1733      46438.611      1.0294201     -4168.4467    
     16760   389.20542     -784.83847      4895.964       4639.4295     -420.69558      2500.6532      5530.6311      46438.611      1.0294201     -5351.7039    
     16800   382.83943      993.67528      4887.5225      4563.5453     -365.42146      2501.2764      5467.6847      46438.611      1.0294201     -3498.4929    
     16840   369.68365      1475.2609      4947.9228      4406.725      -356.38092      2504.9795      5513.4868      46438.611      1.0294201     -2862.5398    
     16880   373.36881     -216.77476      4956.1958      4450.6531     -394.02504      2501.9624      5562.5871      46438.611      1.0294201     -4597.8164    
     16920   377.06183     -1037.2683      4951.174       4494.6748     -399.87895      2505.541       5557.0948      46438.611      1.0294201     -5461.6431    
     16960   377.21968     -55.334462      4935.2325      4496.5565     -398.64181      2506.0259      5541.7135      46438.611      1.0294201     -4481.5615    
     17000   378.71305      269.01542      4923.5226      4514.3578     -390.1835       2506.0573      5522.7494      46438.611      1.0294201     -4174.7346    
     17040   374.41471     -57.995331      4905.6579      4463.1204     -419.62555      2501.0805      5539.5705      46438.611      1.0294201     -4451.3093    
     17080   375.27787     -793.86059      4892.1782      4473.4095     -418.48856      2486.9767      5539.4296      46438.611      1.0294201     -5197.3027    
     17120   382.19894      213.6192       4881.0165      4555.9105     -425.7577       2497.224       5524.2368      46438.611      1.0294201     -4271.0335    
     17160   382.11497     -134.98837      4891.7817      4554.9096     -410.93056      2505.3339      5511.4296      46438.611      1.0294201     -4618.6559    
     17200   377.56506     -596.77055      4960.3917      4500.6735     -397.93744      2505.1561      5566.4274      46438.611      1.0294201     -5027.0502    
     17240   375.76436     -438.56496      4886.9848      4479.2086     -411.45818      2512.9202      5498.6258      46438.611      1.0294201     -4847.7155    
     17280   378.58196     -518.67393      4914.1706      4512.7952     -413.97689      2506.0996      5535.6224      46438.611      1.0294201     -4960.8857    
     17320   377.3727       174.90164      4885.6054      4498.3805     -387.50682      2502.8518      5484.2183      46438.611      1.0294201     -4253.1209    
     17360   377.20334     -1306.7262      4977.8483      4496.3617     -395.40566      2502.2924      5585.5689      46438.611      1.0294201     -5732.7615    
     17400   375.22249     -2125.9594      4922.1263      4472.7495     -417.742        2494.6543      5560.98        46438.611      1.0294201     -6528.7518    
     17440   372.04952      458.46406      5003.8091      4434.9267     -401.92863      2487.3237      5633.6803      46438.611      1.0294201     -3907.0972    
     17480   379.72188     -457.52241      4927.2092      4526.3834     -386.0482       2498.9086      5529.2329      46438.611      1.0294201     -4913.1098    
     17520   383.74647     -1346.4934      5007.6858      4574.3574     -405.82003      2494.9829      5632.3768      46438.611      1.0294201     -5849.3046    
     17560   384.85078      411.80432      4930.0144      4587.5211     -380.93192      2496.2407      5529.4547      46438.611      1.0294201     -4103.9646    
     17600   383.30271     -456.89229      4904.7094      4569.0677     -410.95837      2499.9819      5530.6859      46438.611      1.0294201     -4954.4965    
     17640   377.8936      -386.17327      4898.7953      4504.5897     -411.76882      2496.2187      5528.33        46438.611      1.0294201     -4820.3079    
     17680   376.02521     -262.73142      4947.5602      4482.3181     -414.67713      2495.0207      5581.3988      46438.611      1.0294201     -4674.9427    
     17720   379.47019     -1436.3732      5013.694       4523.3831     -447.86449      2488.1898      5687.5044      46438.611      1.0294201     -5889.0072    
     17760   386.162       -739.37348      4928.6647      4603.1512     -399.1602       2491.5117      5549.1102      46438.611      1.0294201     -5270.5281    
     17800   369.07234     -190.27414      4959.3086      4399.438      -358.49192      2490.3316      5541.0343      46438.611      1.0294201     -4520.9018    
     17840   373.14954     -164.02551      4902.3109      4448.0393     -421.35924      2491.9869      5544.272       46438.611      1.0294201     -4542.4942    
     17880   375.60624     -142.57746      4904.7476      4477.3238     -393.32015      2487.9132      5524.5419      46438.611      1.0294201     -4549.8726    
     17920   383.09827     -1535.2345      4855.1066      4566.6307     -391.15083      2490.4059      5470.4413      46438.611      1.0294201     -6030.4398    
     17960   371.69135     -2885.3957      4920.7005      4430.6573     -434.72981      2504.4939      5564.405       46438.611      1.0294201     -7246.7543    
     18000   381.23667     -475.4346       4895.1432      4544.44       -376.45427      2497.1185      5487.2822      46438.611      1.0294201     -4948.7962    
     18040   374.01416      258.06475      4962.0471      4458.3458     -368.11741      2496.7768      5547.9766      46438.611      1.0294201     -4130.5492    
     18080   376.29491     -336.09291      4906.4836      4485.533      -381.41314      2494.8209      5507.3593      46438.611      1.0294201     -4751.4689    
     18120   381.07435      251.27376      4926.9022      4542.505      -391.64715      2485.5149      5547.9869      46438.611      1.0294201     -4220.1832    
     18160   386.37976      1220.3721      4884.6227      4605.7469     -419.19461      2485.0892      5532.1639      46438.611      1.0294201     -3313.3376    
     18200   377.26216      608.07027      4995.3018      4497.0628     -397.66182      2481.8035      5625.5209      46438.611      1.0294201     -3818.6552    
     18240   374.24461     -205.4117       4917.7262      4461.0929     -428.63525      2492.3866      5568.0978      46438.611      1.0294201     -4596.7298    
     18280   377.22529     -563.29141      4956.3217      4496.6233     -377.66894      2491.2375      5555.804       46438.611      1.0294201     -4989.5842    
     18320   378.54856     -649.28462      4878.6661      4512.397      -375.10698      2492.3262      5476.3537      46438.611      1.0294201     -5091.1044    
     18360   378.88765     -681.07479      4828.0187      4516.4391     -426.5312       2495.4499      5473.3556      46438.611      1.0294201     -5126.8735    
     18400   380.06079     -17.20637       4863.5532      4530.4231     -383.33466      2498.6176      5461.9748      46438.611      1.0294201     -4476.7704    
     18440   377.04304     -203.27951      4940.1164      4494.4509     -396.90112      2493.9259      5556.4987      46438.611      1.0294201     -4627.4339    
     18480   373.46237      711.67547      4940.862       4451.7683     -357.59153      2499.0064      5512.6088      46438.611      1.0294201     -3670.4639    
     18520   370.48352     -871.7614       4890.2332      4416.2596     -398.24227      2500.9494      5501.6078      46438.611      1.0294201     -5218.9475    
     18560   376.87761     -1835.1019      4843.2707      4492.4789     -449.54248      2496.2976      5510.8141      46438.611      1.0294201     -6257.3151    
     18600   378.70036     -59.07748       4886.9073      4514.2066     -412.18273      2487.5585      5526.2334      46438.611      1.0294201     -4502.6786    
     18640   370.27366     -788.45195      5002.4202      4413.758      -387.64558      2501.7091      5602.6722      46438.611      1.0294201     -5133.1756    
     18680   382.17749     -194.5093       4931.3748      4555.6548     -385.72191      2505.5142      5522.9894      46438.611      1.0294201     -4678.9104    
     18720   381.78095     -1314.5256      4937.6357      4550.9279     -381.89553      2490.1573      5541.666       46438.611      1.0294201     -5794.2737    
     18760   386.06265      1715.5426      4941.6098      4601.967      -381.22664      2507.1809      5528.4741      46438.611      1.0294201     -2814.4462    
[...]
     30560   370.07759      797.67189      4899.5555      4411.4209     -406.33212      2492.0687      5526.7708      46438.611      1.0294201     -3544.7511    
     30600   370.87399     -2155.9839      4899.2448      4420.9142     -435.99974      2500.0967      5548.729       46438.611      1.0294201     -6507.7518    
     30640   367.10494      1009.171       4941.5432      4375.9862     -419.6475       2508.5561      5565.8596      46438.611      1.0294201     -3298.3715    
     30680   378.39033     -1513.7871      5011.7095      4510.5109     -392.9262       2491.7941      5626.1174      46438.611      1.0294201     -5953.7503    
     30720   385.03142     -469.46438      5096.1476      4589.6744     -400.91761      2497.0935      5714.2351      46438.611      1.0294201     -4987.3529    
     30760   386.36208      897.86228      4910.1112      4605.5362     -416.2113       2506.9282      5533.4485      46438.611      1.0294201     -3635.64      
     30800   373.58499      951.26178      4978.2987      4453.23       -372.85032      2498.7633      5566.3708      46438.611      1.0294201     -3432.3164    
     30840   379.74265      1279.8533      4936.8862      4526.6309     -420.22523      2508.7429      5561.5935      46438.611      1.0294201     -3175.9779    
     30880   379.27836     -806.77894      4950.477       4521.0964     -428.19494      2502.5536      5590.2886      46438.611      1.0294201     -5257.1621    
     30920   379.44458      257.95811      4916.8235      4523.0779     -375.94716      2496.1656      5510.8649      46438.611      1.0294201     -4194.3755    
     30960   377.90185      106.47557      4893.9045      4504.688      -403.45647      2501.1117      5509.2591      46438.611      1.0294201     -4327.7558    
     31000   377.6239      -259.13435      4905.5526      4501.3749     -411.48144      2493.1886      5536.0706      46438.611      1.0294201     -4690.1044    
     31040   380.43265      1361.1134      5020.737       4534.8559     -393.13159      2507.5521      5618.04        46438.611      1.0294201     -3102.8141    
     31080   385.89356      198.7485       4786.2056      4599.9513     -420.95404      2495.2602      5424.243       46438.611      1.0294201     -4329.2562    
     31120   372.97883     -4148.5856      4816.9641      4446.0044     -442.09948      2497.4078      5474.4048      46438.611      1.0294201     -8525.0512    
     31160   380.84582     -116.6114       4877.209       4539.7809     -402.99332      2496.2975      5496.4883      46438.611      1.0294201     -4585.3868    
     31200   381.13483      557.14667      4926.2706      4543.226      -382.14738      2488.067       5531.582       46438.611      1.0294201     -3915.02      
     31240   380.66782     -500.99829      4899.468       4537.6592     -371.31003      2484.1342      5497.8907      46438.611      1.0294201     -4967.6851    
     31280   385.92537      899.66962      4931.8518      4600.3305     -404.08947      2491.6115      5557.2868      46438.611      1.0294201     -3628.7083    
     31320   383.32656      572.3708       4993.9792      4569.352      -339.95229      2498.3376      5547.8644      46438.611      1.0294201     -3925.5132    
     31360   385.87811      58.731044      4948.1763      4599.7672     -398.98502      2490.1935      5569.5464      46438.611      1.0294201     -4469.0924    
     31400   380.24852      127.69012      4979.4682      4532.661      -389.64478      2496.6515      5585.4808      46438.611      1.0294201     -4334.0767    
     31440   379.19151      1365.2209      4982.0047      4520.0611     -383.58171      2504.6412      5574.8332      46438.611      1.0294201     -3084.1431    
     31480   381.35459     -228.60481      4998.2349      4545.8457     -395.10911      2498.181       5609.1065      46438.611      1.0294201     -4703.3501    
     31520   386.85593      1503.818       4965.8558      4611.423      -363.53973      2504.893       5538.3866      46438.611      1.0294201     -3035.4789    
     31560   384.30945     -1460.0413      5031.5071      4581.0683     -449.22114      2500.1638      5695.178       46438.611      1.0294201     -5969.4584    
     31600   385.53285     -59.951636      5008.5293      4595.6516     -393.98559      2494.7229      5621.1251      46438.611      1.0294201     -4583.7239    
     31640   386.43977      2311.145       4983.2642      4606.4623     -321.31575      2493.2238      5524.3744      46438.611      1.0294201     -2223.2688    
     31680   385.54822     -805.65265      4919.1413      4595.8348     -421.12673      2503.1909      5549.5326      46438.611      1.0294201     -5329.6052    
     31720   377.05704     -1133.858       4918.3116      4494.6177     -404.43592      2503.1277      5531.7594      46438.611      1.0294201     -5558.1766    
     31760   383.76995      1477.4202      4946.94        4574.6373     -367.03771      2498.7669      5528.3584      46438.611      1.0294201     -3025.6664    
     31800   381.71792      985.62906      4916.4669      4550.1766     -339.37711      2507.58        5461.2346      46438.611      1.0294201     -3493.3795    
     31840   386.93127     -822.18638      4884.0929      4612.3211     -376.78246      2494.0561      5481.4298      46438.611      1.0294201     -5362.3674    
     31880   374.82708     -200.88116      4996.3331      4468.0361     -376.39927      2493.9762      5592.73        46438.611      1.0294201     -4599.0339    
     31920   384.87662     -351.07999      4957.3752      4587.8291     -398.29884      2502.6569      5565.1939      46438.611      1.0294201     -4867.1521    
     31960   377.30272     -2439.6461      5048.803       4497.5463     -432.75313      2495.3362      5697.9286      46438.611      1.0294201     -6866.8475    
     32000   377.22344     -297.40224      4921.2756      4496.6013     -422.04992      2501.6482      5554.7797      46438.611      1.0294201     -4723.6734    
     32040   386.45477      2137.4923      4919.1594      4606.6411     -367.58611      2499.93        5498.4356      46438.611      1.0294201     -2397.0976    
     32080   381.47605     -277.26425      4912.3888      4547.2934     -413.52264      2506.9133      5531.6354      46438.611      1.0294201     -4753.4347    
     32120   383.23838     -1393.5788      4913.5702      4568.3009     -433.04373      2498.9591      5559.8694      46438.611      1.0294201     -5890.4282    
     32160   376.63496      336.20153      4894.5468      4489.5864     -419.77443      2505.9499      5521.2944      46438.611      1.0294201     -4083.1645    
     32200   382.8892       250.46185      4925.159       4564.1386     -411.12827      2498.4266      5549.9731      46438.611      1.0294201     -4242.2903    
     32240   374.31265     -799.79237      4970.8886      4461.9039     -415.96482      2499.9029      5598.9467      46438.611      1.0294201     -5191.9088    
     32280   382.39539      14.472165      4894.2148      4558.2523     -444.89569      2500.3006      5552.2058      46438.611      1.0294201     -4472.4857    
     32320   371.98448     -1240.8698      4919.5665      4434.1515     -410.37359      2488.8587      5553.5821      46438.611      1.0294201     -5605.6679    
     32360   379.19742     -2042.6321      4932.6071      4520.1316     -409.07389      2491.0795      5563.3447      46438.611      1.0294201     -6492.0656    
     32400   382.76462     -2274.1319      4897.5972      4562.6535     -408.55844      2503.0496      5515.3314      46438.611      1.0294201     -6765.4222    
     32440   385.02863      463.05278      4852.5819      4589.6411     -397.17228      2495.6974      5467.3475      46438.611      1.0294201     -4054.803     
     32480   379.69882     -249.67826      4879.1855      4526.1084     -411.17155      2496.4974      5507.1597      46438.611      1.0294201     -4704.995     
     32520   377.41039     -946.78224      4935.367       4498.8297     -390.22372      2489.4449      5550.5578      46438.611      1.0294201     -5375.247     
     32560   383.80312      542.41077      4857.7384      4575.0327     -414.0692       2497.499       5488.4562      46438.611      1.0294201     -3961.0651    
     32600   381.66418     -332.29123      4800.463       4549.536      -440.92014      2499.3449      5456.6499      46438.611      1.0294201     -4810.6692    
     32640   372.18757      21.275895      4845.4014      4436.5724     -418.00654      2491.6158      5485.4381      46438.611      1.0294201     -4345.9052    
     32680   372.44899      314.05715      4873.5639      4439.6886     -407.12909      2493.3442      5500.9636      46438.611      1.0294201     -4056.1914    
     32720   371.96279     -29.296323      4924.6726      4433.8929     -371.58294      2490.7406      5519.2632      46438.611      1.0294201     -4393.8399    
     32760   376.42977     -226.14165      4868.4495      4487.1405     -405.05831      2488.591       5497.854       46438.611      1.0294201     -4643.1       
     32800   381.57473     -1104.9241      4896.2188      4548.4697     -390.00888      2498.449       5500.344       46438.611      1.0294201     -5582.2524    
     32840   380.58953     -974.83714      4918.2142      4536.7259     -428.41965      2502.4931      5557.8769      46438.611      1.0294201     -5440.6053    
     32880   383.81144     -746.12025      4989.9552      4575.1319     -399.8977       2490.7821      5613.6648      46438.611      1.0294201     -5249.6937    
     32920   381.56604     -879.38402      4939.9634      4548.3662     -433.92561      2483.4227      5603.2516      46438.611      1.0294201     -5356.6104    
     32960   381.94433     -656.10085      4909.254       4552.8755     -433.03229      2485.0125      5571.2095      46438.611      1.0294201     -5137.7661    
     33000   377.53137     -776.83382      5015.2845      4500.2719     -395.35427      2493.2282      5629.8633      46438.611      1.0294201     -5206.7181    
     33040   375.64935      77.504206      4929.4024      4477.8377     -385.62693      2486.7634      5542.2717      46438.611      1.0294201     -4330.2968    
     33080   374.53472     -1195.3898      5001.3741      4464.551      -404.70569      2496.1807      5623.2773      46438.611      1.0294201     -5590.112     
     33120   388.91382     -1179.793       4899.241       4635.9537     -401.02197      2500.1742      5513.9142      46438.611      1.0294201     -5743.237     
     33160   370.8878      -1168.0346      4982.2152      4421.0787     -372.42618      2506.0716      5560.917       46438.611      1.0294201     -5519.9644    
     33200   382.34719     -44.279521      4914.0695      4557.6776     -402.99055      2501.4775      5528.3918      46438.611      1.0294201     -4530.6717    
     33240   382.44497      582.81231      4931.1105      4558.8432     -381.38503      2504.6028      5521.6021      46438.611      1.0294201     -3904.7273    
     33280   385.46067      647.70967      4951.274       4594.7911     -398.31843      2497.323       5565.1731      46438.611      1.0294201     -3875.2156    
     33320   373.24815     -1084.245       4989.4016      4449.2148     -422.03421      2502.4844      5622.676       46438.611      1.0294201     -5463.8708    
     33360   376.94954     -334.68133      4922.765       4493.3363     -419.54171      2491.0617      5565.4528      46438.611      1.0294201     -4757.7386    
     33400   379.85647     -464.71193      4935.9333      4527.9877     -418.93564      2497.9564      5571.3512      46438.611      1.0294201     -4921.8786    
     33440   383.63829     -224.48813      4862.404       4573.0679     -389.13315      2484.4994      5481.2746      46438.611      1.0294201     -4726.0299    
     33480   380.40173     -310.27411      4873.1883      4534.4873     -432.64207      2480.4971      5538.7702      46438.611      1.0294201     -4773.8387    
     33520   372.51658     -1672.6456      4867.7517      4440.4942     -435.51113      2487.3761      5530.267       46438.611      1.0294201     -6043.6872    
     33560   373.56565     -938.17587      4958.8708      4452.9994     -403.90728      2494.4111      5583.0549      46438.611      1.0294201     -5321.5271    
     33600   379.26586     -1462.2615      4941.9543      4520.9474     -434.28836      2490.8974      5599.9881      46438.611      1.0294201     -5912.498     
     33640   374.27615     -683.79032      4895.353       4461.4688     -414.43319      2488.9823      5535.7733      46438.611      1.0294201     -5075.4785    
     33680   381.2121      -312.58228      4926.2416      4544.1471     -410.49218      2496.3462      5556.3058      46438.611      1.0294201     -4785.6556    
     33720   381.50554     -1085.343       4896.5227      4547.645      -395.59333      2491.8002      5514.8079      46438.611      1.0294201     -5561.8595    
     33760   379.2399       2519.9617      5053.0209      4520.638      -330.07698      2493.8164      5602.0005      46438.611      1.0294201     -1929.9702    
     33800   383.38576     -920.78099      4967.088       4570.0577     -370.34773      2499.418       5549.4987      46438.611      1.0294201     -5419.3596    
     33840   381.74485     -698.44277      5058.4152      4550.4977     -354.12007      2508.2399      5616.4972      46438.611      1.0294201     -5177.7673    
     33880   388.35037     -1396.7106      5002.2829      4629.2372     -437.08798      2507.5539      5644.1811      46438.611      1.0294201     -5953.5431    
     33920   387.3042      -577.40093      5017.1558      4616.7666     -401.72467      2502.9272      5627.1683      46438.611      1.0294201     -5121.9579    
     33960   384.31306      823.61879      4971.8697      4581.1114     -399.06672      2508.5276      5574.9338      46438.611      1.0294201     -3685.8406    
     34000   383.06909      870.05906      4985.7809      4566.283      -410.56344      2498.9886      5610.5762      46438.611      1.0294201     -3624.8039    
     34040   389.70817      188.46078      4859.7644      4645.4225     -431.99702      2498.2294      5507.3785      46438.611      1.0294201     -4384.3039    
     34080   381.66301      2498.1798      4966.8657      4549.522      -406.07726      2514.5327      5572.0444      46438.611      1.0294201     -1980.1844    
     34120   383.10034     -308.59512      4939.5416      4566.6554     -428.67144      2518.3916      5563.3188      46438.611      1.0294201     -4803.8247    
     34160   388.46312     -1592.024       4817.5961      4630.5812     -427.76935      2515.658       5441.4935      46438.611      1.0294201     -6150.1796    
     34200   374.35016     -816.52559      4936.5878      4462.351      -415.08898      2504.0887      5560.8137      46438.611      1.0294201     -5209.0822    
     34240   376.06592     -211.44545      4931.1032      4482.8033     -381.86244      2491.9508      5535.1034      46438.611      1.0294201     -4624.1344    
     34280   380.86006     -980.88336      5001.0821      4539.9507     -403.79527      2491.8885      5626.7621      46438.611      1.0294201     -5449.8259    
     34320   386.18346     -1657.5388      4838.8097      4603.407      -432.56825      2494.2727      5491.6197      46438.611      1.0294201     -6188.9451    
     34360   385.47116     -818.63029      5008.745       4594.9162     -430.02412      2502.8833      5650.4158      46438.611      1.0294201     -5341.6786    
     34400   381.53753      1722.5179      5023.9684      4548.0264     -391.83104      2508.3585      5621.6223      46438.611      1.0294201     -2754.374     
     34440   391.39002     -74.849438      5011.834       4665.4706     -419.64619      2494.9071      5650.7646      46438.611      1.0294201     -4667.3487    
     34480   377.42078     -1432.0608      5030.5144      4498.9536     -429.81444      2505.3136      5669.2303      46438.611      1.0294201     -5860.6474    
     34520   375.23553      3373.2478      5058.5086      4472.9049     -355.17161      2517.6475      5609.7369      46438.611      1.0294201     -1029.6976    
     34560   381.73954     -408.3512       4882.6366      4550.4344     -424.23957      2508.269       5512.3894      46438.611      1.0294201     -4887.6135    
     34600   378.67587     -1743.3119      4877.7934      4513.9146     -442.79386      2504.6304      5529.672       46438.611      1.0294201     -6186.6256    
     34640   376.33409     -886.43163      4911.1466      4486          -454.55781      2491.2287      5588.1258      46438.611      1.0294201     -5302.2673    
     34680   375.6125      -3205.9362      4927.3639      4477.3984     -446.71618      2497.1355      5591.1354      46438.611      1.0294201     -7613.3048    
     34720   377.55044     -1365.4787      4972.6993      4500.4992     -430.17631      2494.5015      5622.5379      46438.611      1.0294201     -5795.5868    
     34760   379.57825     -188.7869       4921.1785      4524.6712     -400.72708      2486.025       5551.3257      46438.611      1.0294201     -4642.6889    
     34800   379.76616     -461.54341      4964.908       4526.9111     -430.11957      2487.0121      5622.8692      46438.611      1.0294201     -4917.6503    
     34840   383.35554      122.97847      4978.1596      4569.6975     -410.27099      2494.8808      5605.1594      46438.611      1.0294201     -4375.2456    
     34880   392.58937      1924.6482      4910.0126      4679.7671     -367.18183      2495.7829      5493.5747      46438.611      1.0294201     -2681.9239    
     34920   384.23026     -882.2993       4967.9861      4580.1244     -394.36132      2497.7808      5576.7337      46438.611      1.0294201     -5390.7872    
     34960   383.06362     -2303.4369      4871.6805      4566.2177     -444.22062      2498.7416      5530.2218      46438.611      1.0294201     -6798.2356    
     35000   379.30719      1040.7201      4968.9776      4521.4401     -369.83872      2495.4712      5556.7521      46438.611      1.0294201     -3410.0014    
     35040   390.58174     -2060.4773      4874.3968      4655.8357     -425.0146       2498.7462      5514.4481      46438.611      1.0294201     -6643.4923    
     35080   372.76869     -1112.5956      4905.648       4443.4995     -417.23078      2507.8107      5527.0504      46438.611      1.0294201     -5486.5956    
     35120   375.06776      256.26192      4970.3013      4470.905      -379.03438      2495.1401      5566.2916      46438.611      1.0294201     -4144.7148    
     35160   375.17454      186.50364      5041.9156      4472.1778     -364.72387      2498.5659      5622.2269      46438.611      1.0294201     -4215.726     
     35200   386.64946     -1140.115       4937.3011      4608.9618     -422.13745      2499.911       5573.7538      46438.611      1.0294201     -5676.9893    
     35240   378.01445     -1308.4678      4871.5566      4506.0303     -451.40628      2504.1803      5532.4463      46438.611      1.0294201     -5744.0205    
     35280   375.44526      275.31864      4959.9829      4475.4049     -446.06892      2500.8634      5619.7768      46438.611      1.0294201     -4130.0876    
     35320   378.03558      1448.1942      4987.7691      4506.2822     -400.70255      2494.0427      5608.5262      46438.611      1.0294201     -2987.6065    
     35360   386.03922     -278.09992      5000.965       4601.6876     -411.2497       2485.4804      5639.6824      46438.611      1.0294201     -4807.8138    
     35400   384.48501     -813.84599      4920.8668      4583.1611     -427.71857      2483.9275      5578.4394      46438.611      1.0294201     -5325.3231    
     35440   369.54994     -363.04153      5010.97        4405.1311     -384.54949      2493.4234      5615.591       46438.611      1.0294201     -4699.2731    
