LAMMPS (23 Jun 2022)
OMP_NUM_THREADS environment is not set. Defaulting to 1 thread. (src/comm.cpp:98)
  using 1 OpenMP thread(s) per MPI task
# Create initial configuration

units real
atom_style full
boundary p p p

# Potential
pair_style lj/cut/coul/long 9.0 9.0
pair_modify mix geometric
bond_style      harmonic
angle_style     harmonic
dihedral_style  opls
improper_style  cvff
special_bonds lj/coul 0.0 0.0 0.5
pair_modify tail yes
kspace_style pppm 1.0e-4

# Setup initial structure
read_data data.initial
Reading data file ...
  orthogonal box = (0 0 0) to (35.944 35.944 35.944)
  2 by 4 by 4 MPI processor grid
  reading atoms ...
  4000 atoms
  reading velocities ...
  4000 velocities
  scanning bonds ...
  2 = max bonds/atom
  scanning angles ...
  3 = max angles/atom
  scanning dihedrals ...
  6 = max dihedrals/atom
  scanning impropers ...
  2 = max impropers/atom
  reading bonds ...
  4250 bonds
  reading angles ...
  6750 angles
  reading dihedrals ...
  10000 dihedrals
  reading impropers ...
  2250 impropers
Finding 1-2 1-3 1-4 neighbors ...
  special bond factors lj:    0        0        0.5     
  special bond factors coul:  0        0        0.5     
     3 = max # of 1-2 neighbors
     6 = max # of 1-3 neighbors
    16 = max # of 1-4 neighbors
    18 = max # of special neighbors
  special bonds CPU = 0.045 seconds
  read_data CPU = 0.234 seconds
variable L index 35.944
change_box all x final 0 $L y final 0 $L z final 0 $L boundary p p p remap units box
change_box all x final 0 35.944 y final 0 $L z final 0 $L boundary p p p remap units box
change_box all x final 0 35.944 y final 0 35.944 z final 0 $L boundary p p p remap units box
change_box all x final 0 35.944 y final 0 35.944 z final 0 35.944 boundary p p p remap units box
Changing box ...
  orthogonal box = (0 0 0) to (35.944 35.944 35.944)
  orthogonal box = (0 0 0) to (35.944 35.944 35.944)
  orthogonal box = (0 0 0) to (35.944 35.944 35.944)

# Integrator
timestep 2.0
variable T index 380
fix langevin all langevin $T $T 200 2022 gjf vhalf
fix langevin all langevin 380 $T 200 2022 gjf vhalf
fix langevin all langevin 380 380 200 2022 gjf vhalf
fix integrator all nve
fix no_cm_drift all momentum 100 linear 1 1 1
neigh_modify every 1 check yes

# Compute virial
compute virial all pressure NULL virial

# Output
thermo_style custom step temp press pe ke evdwl ecoul emol vol density c_virial
thermo 40
dump dumpATOM all atom 50000 dump.constant_volume
dump_modify dumpATOM image yes
#dump XYZ all xyz 50000 constant_volume.xyz
restart 50000 crash.1.restart crash.2.restart

# Run simulation
variable run index 134217728
run ${run}
run 134217728
PPPM initialization ...
  using 12-bit tables for long-range coulomb (src/kspace.cpp:342)
  G vector (1/distance) = 0.21911997
  grid = 10 10 10
  stencil order = 5
  estimated absolute RMS force accuracy = 0.031434737
  estimated relative force accuracy = 9.4664778e-05
  using double precision KISS FFT
  3d grid and FFT values/proc = 640 60
Generated 496 of 496 mixed pair_coeff terms from geometric mixing rule
Neighbor list info ...
  update every 1 steps, delay 10 steps, check yes
  max neighbors/atom: 2000, page size: 100000
  master list distance cutoff = 11
  ghost atom cutoff = 11
  binsize = 5.5, bins = 7 7 7
  1 neighbor lists, perpetual/occasional/extra = 1 0 0
  (1) pair lj/cut/coul/long, perpetual
      attributes: half, newton on
      pair build: half/bin/newton
      stencil: half/bin/3d
      bin: standard
Per MPI rank memory allocation (min/avg/max) = 12.97 | 12.98 | 12.98 Mbytes
   Step          Temp          Press          PotEng         KinEng         E_vdwl         E_coul         E_mol          Volume        Density        c_virial   
         0   378.80187      400.70456      5017.2814      4515.4165     -387.41707      2520.0873      5596.5144      46438.611      1.0294201     -4044.0876    
        40   392.1704       1287.1123      4876.0224      4674.7729     -327.58926      2506.8339      5409.3757      46438.611      1.0294201     -3314.5437    
        80   374.24339      1470.2648      5083.3751      4461.0782     -373.4939       2511.0529      5658.2867      46438.611      1.0294201     -2921.0389    
       120   379.83798      718.18427      5088.2238      4527.7672     -374.91023      2503.7042      5672.1462      46438.611      1.0294201     -3738.7654    
       160   377.83922     -83.294852      5068.0968      4503.9415     -371.22818      2505.6822      5645.2277      46438.611      1.0294201     -4516.7914    
       200   382.86758      154.52607      5002.232       4563.8808     -364.12205      2496.3876      5582.3076      46438.611      1.0294201     -4337.9723    
       240   375.88819     -655.25548      5006.8395      4480.6847     -407.09434      2494.061       5632.4107      46438.611      1.0294201     -5065.859     
       280   377.9469       1221.7485      4992.7325      4505.2251     -378.92486      2493.7933      5591.8074      46438.611      1.0294201     -3213.0115    
       320   382.11072     -244.12523      4951.7806      4554.8589     -373.71893      2505.1562      5533.3014      46438.611      1.0294201     -4727.7428    
       360   377.00443      1937.1666      4959.4112      4493.9906     -361.59944      2491.8048      5541.8347      46438.611      1.0294201     -2486.5347    
       400   378.55847      706.2044       4953.1017      4512.5151     -366.29505      2488.3925      5543.6024      46438.611      1.0294201     -3735.7317    
       440   385.36252     -8.4532259      4981.2155      4593.6212     -372.58433      2491.9899      5574.4756      46438.611      1.0294201     -4530.2269    
       480   388.54452      674.70688      4879.8574      4631.5514     -415.72977      2497.5529      5509.5293      46438.611      1.0294201     -3884.4037    
       520   377.74584      729.79504      4974.6291      4502.8284     -407.18307      2509.6336      5584.2383      46438.611      1.0294201     -3702.6058    
       560   382.45091      2166.1413      5025.2337      4558.914      -350.25545      2501.5421      5585.9008      46438.611      1.0294201     -2321.468     
       600   386.85981      847.78841      4947.6127      4611.4693     -357.61569      2503.1045      5514.6711      46438.611      1.0294201     -3691.5541    
       640   387.85992      613.29742      4953.8536      4623.3909     -387.2241       2492.5299      5560.5317      46438.611      1.0294201     -3937.7802    
       680   378.8828      -2247.0139      4934.4937      4516.3812     -427.42525      2491.5695      5583.6298      46438.611      1.0294201     -6692.7556    
       720   381.08596     -27.248656      4957.032       4542.6435     -358.17098      2498.1998      5530.3058      46438.611      1.0294201     -4498.8419    
       760   378.85907     -2253.9512      4998.9343      4516.0984     -405.09201      2493.533       5624.9064      46438.611      1.0294201     -6699.4146    
       800   385.27955      851.87268      5000.7258      4592.6322     -351.2438       2503.6807      5560.8486      46438.611      1.0294201     -3668.9274    
       840   389.92323      1469.1413      5033.853       4647.986      -364.93398      2505.3345      5604.727       46438.611      1.0294201     -3106.1469    
       880   377.5382       716.12278      5021.9017      4500.3532     -356.89656      2500.1679      5591.2972      46438.611      1.0294201     -3713.8416    
       920   386.40275      2239.915       5003.6467      4606.021      -376.93076      2493.4615      5600.77        46438.611      1.0294201     -2294.0644    
       960   376.78185      215.07086      4977.7263      4491.3374     -369.82348      2506.5402      5553.7417      46438.611      1.0294201     -4206.0188    
      1000   379.51262      106.57535      4891.4159      4523.8889     -381.65253      2514.6678      5470.8666      46438.611      1.0294201     -4346.5566    
      1040   374.64994      595.07588      4871.2575      4465.9244     -423.10091      2507.9483      5498.1812      46438.611      1.0294201     -3800.9982    
      1080   373.9794      -1826.271       4886.6577      4457.9314     -432.18755      2506.4768      5524.6285      46438.611      1.0294201     -6214.4771    
      1120   374.35299      273.0304       4976.0757      4462.3847     -370.82123      2508.4964      5550.1891      46438.611      1.0294201     -4119.5594    
      1160   374.19283      853.11444      4935.1923      4460.4757     -356.52282      2506.8998      5497.5595      46438.611      1.0294201     -3537.5961    
      1200   383.10308      2328.6871      4967.5962      4566.688      -354.95015      2519.0643      5515.3359      46438.611      1.0294201     -2166.5746    
      1240   381.57296     -324.44911      5011.8054      4548.4487     -337.25708      2509.2628      5551.4326      46438.611      1.0294201     -4801.7567    
      1280   384.80783      60.782482      4993.078       4587.0091     -367.23128      2514.3817      5558.131       46438.611      1.0294201     -4454.4825    
      1320   374.47715     -343.72512      5062.3584      4463.8648     -376.25527      2522.5884      5628.1543      46438.611      1.0294201     -4737.7718    
      1360   384.92882     -1816.2069      4916.0024      4588.4514     -395.53045      2514.0523      5509.7931      46438.611      1.0294201     -6332.8916    
      1400   373.22552      1438.3071      4964.8663      4448.945      -315.37856      2503.8614      5489.7336      46438.611      1.0294201     -2941.0531    
      1440   372.8647       20.771521      4960.051       4444.644      -335.85495      2502.5675      5506.7575      46438.611      1.0294201     -4354.355     
      1480   378.12557      1649.1313      4888.2446      4507.3548     -391.96058      2514.5303      5479.668       46438.611      1.0294201     -2787.7253    
      1520   380.48327      2070.7202      4974.8438      4535.4592     -355.21414      2513.6512      5529.6763      46438.611      1.0294201     -2393.8012    
      1560   379.08486      321.32297      4853.2987      4518.7898     -400.61094      2509.6615      5456.9065      46438.611      1.0294201     -4126.7897    
      1600   374.16603      1111.4052      4922.0039      4460.1562     -381.81863      2514.2546      5502.6854      46438.611      1.0294201     -3278.9908    
      1640   380.59652      385.84107      4819.6434      4536.8093     -362.65962      2504.7828      5388.864       46438.611      1.0294201     -4080.0092    
      1680   370.85905      42.508278      4974.6864      4420.736      -356.99977      2505.3755      5537.7468      46438.611      1.0294201     -4309.0842    
      1720   377.6477       27.961817      5030.7472      4501.6585     -338.44892      2503.2462      5578.1761      46438.611      1.0294201     -4403.2875    
      1760   382.67542     -266.01085      4956.5656      4561.5903     -385.20939      2490.8632      5563.7046      46438.611      1.0294201     -4756.2545    
      1800   379.60521      2316.4945      4973.5707      4524.9925     -343.73356      2492.8598      5537.5476      46438.611      1.0294201     -2137.7238    
      1840   379.75696     -370.34842      4908.0991      4526.8015     -376.30608      2503.4661      5492.8341      46438.611      1.0294201     -4826.3474    
      1880   381.68931     -496.18307      4912.6193      4549.8356     -399.97542      2508.4963      5515.2991      46438.611      1.0294201     -4974.8559    
      1920   381.66301      674.28125      4935.3248      4549.5221     -360.30214      2512.4978      5494.2399      46438.611      1.0294201     -3804.083     
      1960   381.13846      704.64859      4952.0804      4543.2694     -375.9979       2517.7028      5523.1205      46438.611      1.0294201     -3767.5607    
      2000   383.09164     -276.98033      5021.8235      4566.5517     -387.31288      2513.3258      5607.4377      46438.611      1.0294201     -4772.1078    
      2040   390.36188     -583.34827      4990.5278      4653.2148     -399.3292       2505.0477      5596.0796      46438.611      1.0294201     -5163.7834    
      2080   391.15956      203.29892      4991.1077      4662.7235     -390.44329      2503.5861      5588.9363      46438.611      1.0294201     -4386.4961    
      2120   386.70618     -153.47636      5014.6844      4609.6379     -396.31606      2506.7916      5615.7098      46438.611      1.0294201     -4691.0162    
      2160   382.02449      240.35167      5005.5023      4553.831      -359.53435      2505.6495      5573.1673      46438.611      1.0294201     -4242.254     
      2200   378.66047      679.78952      4996.7863      4513.731      -387.87385      2503.991       5594.6781      46438.611      1.0294201     -3763.3434    
      2240   381.69178      733.37957      5029.1843      4549.865      -351.25581      2504.9209      5587.7476      46438.611      1.0294201     -3745.3222    
      2280   377.87236     -1658.6504      4949.1456      4504.3365     -389.83845      2507.8949      5542.2344      46438.611      1.0294201     -6092.5358    
      2320   369.23206     -259.62982      5037.6546      4401.3419     -374.26315      2512.2817      5611.7795      46438.611      1.0294201     -4592.1315    
      2360   382.76294     -1364.7881      4903.3267      4562.6336     -369.63723      2515.7458      5468.9047      46438.611      1.0294201     -5856.0588    
      2400   384.78476      2232.719       4811.2893      4586.7341     -348.46567      2519.052       5352.5003      46438.611      1.0294201     -2282.2752    
      2440   375.32038      302.61306      4891.4479      4473.9163     -407.99596      2521.5006      5491.3921      46438.611      1.0294201     -4101.3279    
      2480   379.24492     -858.5156       4890.8882      4520.6979     -397.92288      2511.5063      5489.8143      46438.611      1.0294201     -5308.5064    
      2520   380.17492     -1321.5359      4937.4653      4531.7837     -358.31785      2523.5328      5484.4958      46438.611      1.0294201     -5782.4391    
      2560   384.2953       169.96349      5009.0057      4580.8996     -341.51492      2517.5037      5543.666       46438.611      1.0294201     -4339.2875    
      2600   385.9216       1563.6725      5026.3111      4600.2855     -339.28802      2503.3856      5574.3575      46438.611      1.0294201     -2964.6612    
      2640   378.04371     -759.75585      4996.2776      4506.3791     -388.30231      2503.8465      5592.5658      46438.611      1.0294201     -5195.6519    
      2680   381.45706     -299.51747      5016.0497      4547.0671     -410.02984      2509.4227      5628.9858      46438.611      1.0294201     -4775.4651    
      2720   388.54231      1832.5518      4927.4079      4631.5251     -391.04741      2520.7679      5508.6235      46438.611      1.0294201     -2726.5329    
      2760   384.07915      1255.7942      4944.359       4578.3231     -345.08328      2507.7729      5491.9568      46438.611      1.0294201     -3250.9205    
      2800   379.0841       493.09142      4901.7623      4518.7808     -391.85006      2513.5425      5490.6332      46438.611      1.0294201     -3955.0124    
      2840   375.73536      1231.8565      4910.902       4478.863      -393.92775      2510.8299      5505.7885      46438.611      1.0294201     -3176.9538    
      2880   377.4315      -1260.4918      4888.0881      4499.0814     -406.54507      2517.82        5488.9206      46438.611      1.0294201     -5689.2043    
      2920   371.63291     -444.92913      4974.1524      4429.9607     -382.50074      2511.2679      5557.7613      46438.611      1.0294201     -4805.602     
      2960   382.01284     -1829.7939      4964.4894      4553.6922     -382.77705      2513.3414      5546.6961      46438.611      1.0294201     -6312.263     
      3000   387.0735       1038.4609      4961.0355      4614.0166     -369.54317      2515.663       5526.8462      46438.611      1.0294201     -3503.389     
      3040   379.83168      950.16384      5060.2671      4527.6922     -327.66644      2512.9952      5586.3273      46438.611      1.0294201     -3506.7119    
      3080   386.13038     -988.5907       4958.0179      4602.7743     -367.72565      2511.6092      5525.2816      46438.611      1.0294201     -5519.3742    
      3120   390.00521      237.15903      4915.5577      4648.9632     -395.24998      2515.9222      5506.7278      46438.611      1.0294201     -4339.091     
      3160   382.26467     -109.58411      4905.2111      4556.694      -390.22614      2523.8058      5483.8836      46438.611      1.0294201     -4595.0081    
      3200   367.30973     -388.07052      5051.8262      4378.4273     -415.47285      2527.4433      5651.5794      46438.611      1.0294201     -4698.016     
      3240   378.12405     -368.31569      4853.652       4507.3368     -389.34101      2518.3399      5434.9299      46438.611      1.0294201     -4805.1545    
      3280   375.27952      1899.8623      5004.8002      4473.4292     -324.36938      2516.1596      5523.1339      46438.611      1.0294201     -2503.5991    
      3320   376.19058     -769.30721      4926.436       4484.2893     -344.82847      2511.362       5471.2668      46438.611      1.0294201     -5183.4589    
      3360   375.40853      234.53114      4888.5159      4474.967      -379.1524       2517.3206      5461.7742      46438.611      1.0294201     -4170.4441    
      3400   385.13125     -312.88884      4919.3825      4590.8644     -410.63794      2514.4658      5527.3312      46438.611      1.0294201     -4831.9488    
      3440   377.48804     -310.85985      4899.1122      4499.7554     -384.10263      2520.5667      5475.0469      46438.611      1.0294201     -4740.2358    
      3480   385.40641      59.451464      4953.9226      4594.1444     -372.28194      2510.0031      5527.5979      46438.611      1.0294201     -4462.8371    
      3520   383.3994       985.61852      4872.6523      4570.2203     -346.24528      2508.7368      5422.2523      46438.611      1.0294201     -3513.1202    
      3560   381.56962      809.41448      4792.3447      4548.4088     -362.86393      2502.9753      5365.0453      46438.611      1.0294201     -3667.8539    
      3600   373.40228     -1346.8244      4899.9768      4451.0521     -401.33111      2508.8656      5503.7989      46438.611      1.0294201     -5728.2588    
      3640   378.51581     -1300.6523      4889.092       4512.0066     -367.39256      2514.7812      5454.3332      46438.611      1.0294201     -5742.0878    
      3680   376.07974      1655.059       4805.8237      4482.968      -398.25212      2523.2063      5394.1457      46438.611      1.0294201     -2757.7921    
      3720   369.62604     -92.212506      4841.2252      4406.0383     -404.79498      2520.8238      5436.5718      46438.611      1.0294201     -4429.3372    
      3760   366.51653     -9.089307       4887.2903      4368.9721     -391.8692       2525.483       5463.5211      46438.611      1.0294201     -4309.7275    
      3800   375.81987      1940.0319      4815.4142      4479.8703     -374.6301       2510.3766      5390.3375      46438.611      1.0294201     -2469.77      
      3840   381.14187     -1492.8515      4858.034       4543.3099     -393.53885      2504.8323      5457.928       46438.611      1.0294201     -5965.1007    
      3880   378.55755     -755.48977      4820.1448      4512.5042     -410.87143      2520.3963      5420.9418      46438.611      1.0294201     -5197.4151    
      3920   375.36748      656.6449       4924.5468      4474.4777     -393.7258       2507.5477      5522.2147      46438.611      1.0294201     -3747.8487    
      3960   371.77892      995.39853      4902.5528      4431.7012     -403.26902      2509.1415      5507.1909      46438.611      1.0294201     -3366.9876    
      4000   375.07499      613.58697      4961.8618      4470.9911     -341.45993      2514.1244      5499.7976      46438.611      1.0294201     -3787.4746    
      4040   378.63789     -2228.0782      4898.8305      4513.4618     -407.34238      2514.7062      5501.6366      46438.611      1.0294201     -6670.9462    
      4080   382.83185     -169.95241      4958.7131      4563.455      -416.40696      2510.0277      5574.555       46438.611      1.0294201     -4662.0316    
      4120   377.6427      -2565.1373      4911.4352      4501.599      -407.86001      2510.8433      5520.7435      46438.611      1.0294201     -6996.328     
      4160   373.56115      545.58106      4986.0781      4452.9459     -362.01735      2509.7219      5550.6454      46438.611      1.0294201     -3837.7175    
      4200   381.0448       167.07535      4990.1181      4542.1529     -378.66843      2506.9219      5573.1517      46438.611      1.0294201     -4304.0349    
      4240   389.26707     -1089.6414      4896.2165      4640.1645     -408.40143      2513.5949      5502.7977      46438.611      1.0294201     -5657.2303    
      4280   370.00709     -807.67558      5031.1235      4410.5805     -380.63304      2518.5713      5604.3132      46438.611      1.0294201     -5149.2714    
      4320   384.46047     -1015.9244      4811.8907      4582.8686     -408.09816      2516.8714      5415.8772      46438.611      1.0294201     -5527.1135    
      4360   376.56945      628.40657      5008.6101      4488.8055     -410.43151      2514.3957      5617.1704      46438.611      1.0294201     -3790.1907    
      4400   387.2812       1616.9374      4916.895       4616.4923     -382.51121      2509.4573      5503.4012      46438.611      1.0294201     -2927.3496    
      4440   380.61452     -1220.8289      5003.062       4537.0238     -397.47858      2520.8612      5591.7375      46438.611      1.0294201     -5686.8903    
      4480   383.07782      82.391666      4893.1531      4566.387      -404.48933      2523.7776      5487.4275      46438.611      1.0294201     -4412.5737    
      4520   381.04616     -685.78436      4872.8484      4542.169      -394.4782       2504.1283      5475.7293      46438.611      1.0294201     -5156.9105    
      4560   381.65319      310.10912      4843.957       4549.405      -404.58323      2512.1095      5447.7941      46438.611      1.0294201     -4168.1399    
      4600   378.0934      -788.72236      4899.7175      4506.9714     -363.82953      2506.0926      5469.0833      46438.611      1.0294201     -5225.2015    
      4640   377.29935      369.39682      4862.032       4497.5061     -377.91794      2510.8006      5438.8765      46438.611      1.0294201     -4057.765     
      4680   374.96187     -203.44456      4960.6672      4469.6427     -390.96543      2520.6602      5541.3648      46438.611      1.0294201     -4603.1788    
      4720   375.11848      15.716213      4981.1573      4471.5096     -387.05995      2521.9959      5558.2062      46438.611      1.0294201     -4385.8557    
      4760   378.71707     -214.1312       4850.146       4514.4057     -393.01896      2514.1764      5439.6093      46438.611      1.0294201     -4657.9283    
      4800   376.38653     -1490.3388      4850.4046      4486.6251     -441.53943      2516.253       5486.8573      46438.611      1.0294201     -5906.7898    
      4840   375.40741      886.64105      4848.8401      4474.9538     -393.43504      2516.5415      5435.945       46438.611      1.0294201     -3518.3212    
      4880   372.34757      383.13908      4846.9612      4438.4796     -335.83661      2508.1474      5386.2386      46438.611      1.0294201     -3985.9195    
      4920   380.47721     -190.95005      4876.9727      4535.387      -400.0163       2514.0595      5474.1159      46438.611      1.0294201     -4655.4003    
      4960   376.76296      718.38224      4848.9437      4491.1123     -384.64711      2506.8235      5439.2282      46438.611      1.0294201     -3702.4857    
      5000   371.81923     -1697.0572      4907.0366      4432.1817     -410.3946       2510.1504      5519.2007      46438.611      1.0294201     -6059.9163    
      5040   387.09151     -1499.1168      4997.5318      4614.2312     -394.48302      2514.4183      5590.1387      46438.611      1.0294201     -6041.178     
      5080   376.52576      805.97121      4967.2893      4488.2848     -365.58539      2520.5583      5522.9118      46438.611      1.0294201     -3612.1135    
      5120   383.8531       1979.8745      4887.83        4575.6285     -361.55855      2514.3692      5446.7887      46438.611      1.0294201     -2524.1878    
      5160   382.10883      1815.8038      4924.8231      4554.8364     -392.33447      2515.8449      5512.5083      46438.611      1.0294201     -2667.7916    
      5200   374.35016     -239.77843      4975.0924      4462.351      -365.55488      2513.814       5538.2329      46438.611      1.0294201     -4632.335     
      5240   386.92322     -184.19966      4944.2481      4612.2252     -377.51137      2523.5589      5508.3312      46438.611      1.0294201     -4724.2862    
      5280   379.41161      164.80529      4958.4499      4522.6848     -359.06578      2518.2161      5509.16        46438.611      1.0294201     -4287.1414    
      5320   375.01346      812.87697      4961.1394      4470.2578     -337.42876      2521.102       5486.2302      46438.611      1.0294201     -3587.4627    
      5360   381.76071      65.539224      4959.3526      4550.6867     -400.06842      2518.9892      5552.5694      46438.611      1.0294201     -4413.9714    
      5400   378.77617      274.3187       4964.6471      4515.1102     -393.84885      2513.9949      5558.0328      46438.611      1.0294201     -4170.1719    
      5440   373.9028      -756.1224       4948.3994      4457.0184     -386.11068      2513.5399      5534.4023      46438.611      1.0294201     -5143.4298    
      5480   375.02529      743.34204      4917.593       4470.3988     -388.16         2510.1025      5508.5666      46438.611      1.0294201     -3657.1364    
      5520   374.59365      1043.666       4816.98        4465.2534     -366.58505      2502.7862      5392.7049      46438.611      1.0294201     -3351.7476    
      5560   370.836        235.16122      4909.2881      4420.4613     -381.19427      2507.5661      5494.1334      46438.611      1.0294201     -4116.1608    
      5600   378.58354      982.8476       4957.1426      4512.814      -370.92774      2506.5692      5532.7879      46438.611      1.0294201     -3459.3827    
      5640   383.00675     -2742.7684      4959.4596      4565.5398     -406.63946      2507.2217      5569.3617      46438.611      1.0294201     -7236.8998    
      5680   379.52782      563.62125      4967.7419      4524.0701     -364.7667       2514.9735      5527.434       46438.611      1.0294201     -3889.6891    
      5720   386.16987     -4.4327125      4934.0785      4603.2451     -375.50556      2492.5148      5529.072       46438.611      1.0294201     -4535.6797    
      5760   367.77744      1515.0478      5048.7249      4384.0025     -350.96173      2509.9075      5600.4757      46438.611      1.0294201     -2800.3857    
      5800   384.90051      423.21793      4929.8217      4588.114      -337.03272      2507.558       5469.642       46438.611      1.0294201     -4093.1346    
      5840   386.4594       958.46337      5004.5039      4606.6963     -326.23059      2506.9808      5532.7094      46438.611      1.0294201     -3576.1808    
      5880   391.01815      1027.0551      4921.0708      4661.0377     -395.95639      2512.7413      5514.3904      46438.611      1.0294201     -3561.0806    
      5920   379.85546      492.07137      5067.752       4527.9756     -386.1933       2510.7795      5654.6708      46438.611      1.0294201     -3965.0834    
      5960   386.98325      2.1987192      4897.9695      4612.9407     -427.13683      2527.2376      5508.1721      46438.611      1.0294201     -4538.5922    
      6000   383.64695     -364.38852      4922.1365      4573.1711     -419.28792      2530.8116      5522.0804      46438.611      1.0294201     -4866.0319    
      6040   377.34543      1659.2432      4933.767       4498.0554     -388.60671      2514.5057      5518.9138      46438.611      1.0294201     -2768.4593    
      6080   386.46292      5.8033227      4913.916       4606.7383     -393.67666      2507.9256      5510.7943      46438.611      1.0294201     -4528.8822    
      6120   386.81261     -916.27574      4919.2493      4610.9066     -406.8603       2515.1962      5521.0085      46438.611      1.0294201     -5455.0644    
      6160   372.35272     -967.31469      5023.1426      4438.5411     -366.65304      2515.5658      5585.4498      46438.611      1.0294201     -5336.4337    
      6200   378.43444      291.36916      4940.1523      4511.0367     -367.83755      2504.6022      5514.4647      46438.611      1.0294201     -4149.1116    
      6240   377.53443      2530.2974      4981.014       4500.3083     -349.98435      2507.9649      5534.1692      46438.611      1.0294201     -1899.6228    
      6280   371.00815      220.5411       4987.3585      4422.5133     -378.01935      2513.6615      5562.702       46438.611      1.0294201     -4132.8009    
      6320   375.57608     -1828.1067      4982.5521      4476.9643     -403.35624      2512.9872      5584.1511      46438.611      1.0294201     -6235.0481    
      6360   384.25814      1597.0144      4839.1025      4580.4567     -396.27609      2526.5012      5418.7286      46438.611      1.0294201     -2911.8006    
      6400   379.55487      1442.1478      4921.6527      4524.3925     -354.53694      2515.0938      5471.8865      46438.611      1.0294201     -3011.4799    
      6440   374.24651     -689.16458      5001.9739      4461.1154     -357.65642      2510.5865      5559.8483      46438.611      1.0294201     -5080.5049    
      6480   382.80319     -165.99177      4908.723       4563.1133     -366.36871      2514.8947      5470.1521      46438.611      1.0294201     -4657.7347    
      6520   378.60186     -680.97722      4925.2145      4513.0324     -388.14793      2509.8965      5513.4644      46438.611      1.0294201     -5123.4224    
      6560   384.31347     -48.304302      4960.4321      4581.1163     -364.4319       2512.6703      5520.581       46438.611      1.0294201     -4557.7686    
      6600   385.19932     -1347.4823      4894.838       4591.6758     -371.1364       2510.3219      5464.9259      46438.611      1.0294201     -5867.341     
      6640   385.68796      275.5878       4932.352       4597.5005     -397.48769      2510.7746      5530.7009      46438.611      1.0294201     -4250.0044    
      6680   386.11307      586.99555      4975.5156      4602.5679     -407.59862      2506.5077      5587.7382      46438.611      1.0294201     -3943.5848    
      6720   382.20782     -170.12321      4898.5084      4556.0164     -412.54773      2504.4267      5520.1048      46438.611      1.0294201     -4654.8802    
      6760   373.35302      1009.7127      4991.7524      4450.4648     -386.78337      2512.9413      5579.7751      46438.611      1.0294201     -3371.1436    
      6800   383.51832     -2868.7068      4902.7852      4571.6378     -456.87903      2521.0895      5551.6263      46438.611      1.0294201     -7368.8408    
      6840   385.69479      1040.2714      4858.1466      4597.582      -403.08711      2517.8992      5456.2034      46438.611      1.0294201     -3485.401     
      6880   376.71541      1700.5052      5023.5505      4490.5454     -354.81284      2514.3981      5577.1218      46438.611      1.0294201     -2719.8047    
      6920   376.6286       1653.7167      4943.5929      4489.5106     -367.48447      2517.5263      5505.8915      46438.611      1.0294201     -2765.5747    
      6960   375.58763     -881.78918      4985.6247      4477.102      -360.77832      2505.6878      5552.9417      46438.611      1.0294201     -5288.866     
      7000   381.75975      1206.3887      5009.2637      4550.6752     -340.05325      2506.1545      5556.3363      46438.611      1.0294201     -3273.1106    
      7040   390.29841     -658.12372      4895.6766      4652.4583     -358.20985      2497.6632      5469.7341      46438.611      1.0294201     -5237.8141    
      7080   385.14689     -951.18346      4932.1792      4591.0509     -367.34892      2515.5317      5497.0296      46438.611      1.0294201     -5470.4269    
      7120   380.63062     -561.21318      4922.3232      4537.2158     -379.31193      2516.4255      5497.7584      46438.611      1.0294201     -5027.4636    
      7160   378.50466     -1419.3707      4955.7538      4511.8737     -432.06756      2516.4497      5583.5637      46438.611      1.0294201     -5860.6754    
      7200   379.75656     -70.885972      4961.9152      4526.7967     -381.86369      2511.2994      5545.4198      46438.611      1.0294201     -4526.8803    
      7240   381.93076      1839.144       4850.818       4552.7137     -328.33205      2516.0246      5375.3686      46438.611      1.0294201     -2642.3619    
      7280   378.22233      543.32732      4927.2612      4508.5083     -332.61523      2509.1207      5463.9566      46438.611      1.0294201     -3894.6646    
      7320   375.65106     -759.54803      4999.3311      4477.8581     -374.85802      2510.7635      5577.2223      46438.611      1.0294201     -5167.3691    
      7360   384.13333     -403.71367      4998.0007      4578.9689     -413.44839      2514.2651      5609.2258      46438.611      1.0294201     -4911.0642    
      7400   381.86726      1048.8587      4963.183       4551.9568     -380.29481      2510.8033      5545.6123      46438.611      1.0294201     -3431.9023    
      7440   383.17308      1007.3954      4927.9751      4567.5226     -360.32673      2512.2245      5488.9728      46438.611      1.0294201     -3488.6877    
      7480   379.30919      60.479762      4932.8345      4521.464      -372.85659      2529.235       5488.2334      46438.611      1.0294201     -4390.2652    
      7520   381.52099     -1596.462       5030.7345      4547.8292     -402.71807      2512.5788      5633.4653      46438.611      1.0294201     -6073.1598    
      7560   377.02389     -1729.1873      5049.4915      4494.2226     -409.33793      2526.0513      5646.4596      46438.611      1.0294201     -6153.1169    
      7600   378.33247     -434.48405      4951.9651      4509.8212     -387.71517      2530.5373      5520.8491      46438.611      1.0294201     -4873.7683    
      7640   375.20803     -19.750657      4971.3417      4472.577      -386.71249      2522.9676      5546.8911      46438.611      1.0294201     -4422.3733    
      7680   383.15104      376.34551      4983.0538      4567.2598     -367.19614      2519.0195      5542.9668      46438.611      1.0294201     -4119.479     
      7720   378.02778      269.23338      5018.0253      4506.1892     -368.19489      2514.5552      5584.5311      46438.611      1.0294201     -4166.4758    
      7760   379.69369      686.60444      4957.0604      4526.0473     -347.85415      2508.9797      5508.8454      46438.611      1.0294201     -3768.6522    
      7800   381.62498     -40.462718      4955.2018      4549.0688     -368.25542      2505.6963      5531.3575      46438.611      1.0294201     -4518.3807    
      7840   376.68548      1345.1732      4985.0684      4490.1887     -297.40439      2507.1506      5487.4088      46438.611      1.0294201     -3074.7856    
      7880   381.04063     -1511.258       5032.0461      4542.1031     -386.8179       2511.7191      5618.0928      46438.611      1.0294201     -5982.3193    
      7920   388.05509     -678.23391      4895.4762      4625.7173     -402.91798      2511.5528      5499.0073      46438.611      1.0294201     -5231.6016    
      7960   378.65681      1929.9521      4996.5739      4513.6874     -323.85679      2514.7917      5517.1864      46438.611      1.0294201     -2513.1378    
      8000   382.03411      1531.9671      5020.0702      4553.9457     -366.37703      2517.5843      5581.6126      46438.611      1.0294201     -2950.7515    
      8040   385.0901      -1015.6131      5019.0376      4590.3739     -389.19782      2519.5482      5599.6808      46438.611      1.0294201     -5534.1902    
      8080   380.45912      288.31526      4971.8999      4535.1714     -368.2714       2511.0857      5540.7768      46438.611      1.0294201     -4175.9227    
      8120   380.66299      52.517246      4979.9826      4537.6016     -368.83645      2508.5968      5551.1185      46438.611      1.0294201     -4414.1129    
      8160   376.11106     -239.37182      5032.2387      4483.3414     -356.6646       2510.1402      5589.8244      46438.611      1.0294201     -4652.5905    
      8200   377.11705      549.82048      4972.3272      4495.3331     -371.59455      2517.6162      5537.7898      46438.611      1.0294201     -3875.2023    
      8240   379.9014      -723.66474      4864.3111      4528.5233     -379.77188      2509.0843      5446.0428      46438.611      1.0294201     -5181.3586    
      8280   377.75523     -850.35312      4874.8744      4502.9403     -392.98578      2506.023       5474.121       46438.611      1.0294201     -5282.8641    
      8320   367.10388     -357.30563      4981.1671      4375.9735     -350.71906      2503.8168      5541.0059      46438.611      1.0294201     -4664.8357    
      8360   371.9146      -660.67088      4885.6647      4433.3184     -382.14553      2496.6396      5483.6544      46438.611      1.0294201     -5024.649     
      8400   373.68272      1232.2776      4919.1683      4454.395      -377.0118       2508.5915      5500.5659      46438.611      1.0294201     -3152.4474    
      8440   375.79048      613.13529      4891.0168      4479.52       -397.25441      2508.2351      5493.5989      46438.611      1.0294201     -3796.3218    
      8480   374.0937       728.52074      4911.7709      4459.2939     -360.56713      2502.6448      5484.1747      46438.611      1.0294201     -3661.0265    
      8520   381.48342      393.79412      4963.4999      4547.3813     -347.30237      2503.7723      5520.9412      46438.611      1.0294201     -4082.4628    
      8560   380.91346     -1802.66        4931.7464      4540.5872     -385.23788      2499.3303      5530.8718      46438.611      1.0294201     -6272.2291    
      8600   372.64636      573.36976      4896.8385      4442.0412     -391.75605      2508.7147      5491.8845      46438.611      1.0294201     -3799.1947    
      8640   379.0207       118.97538      4833.7669      4518.025      -370.43535      2510.5652      5404.4942      46438.611      1.0294201     -4328.3844    
      8680   374.28971      935.80885      4973.9294      4461.6304     -364.78272      2503.8417      5545.4321      46438.611      1.0294201     -3456.0384    
      8720   375.78629      805.6334       4949.1473      4479.4701     -348.4356       2488.659       5521.9486      46438.611      1.0294201     -3603.7745    
      8760   382.6562       1419.5759      4951.8309      4561.3612     -332.44691      2497.2592      5498.8012      46438.611      1.0294201     -3070.4422    
      8800   381.33148      1773.3169      4937.5656      4545.5701     -373.12705      2511.5088      5509.6292      46438.611      1.0294201     -2701.1572    
      8840   378.63051      969.24999      4982.5312      4513.3739     -382.47866      2515.4163      5561.3668      46438.611      1.0294201     -3473.5314    
      8880   382.10819      1082.8         5005.2509      4554.8287     -366.16791      2511.4451      5571.3941      46438.611      1.0294201     -3400.7878    
      8920   384.70621      594.57369      4991.9728      4585.7978     -366.51754      2515.2268      5554.5268      46438.611      1.0294201     -3919.4989    
      8960   383.58239      292.3607       5016.805       4572.4016     -361.51208      2512.1896      5576.8629      46438.611      1.0294201     -4208.5252    
      9000   379.67908     -365.12339      4931.0204      4525.8732     -327.84929      2502.6591      5467.4042      46438.611      1.0294201     -4820.2086    
      9040   380.959       -1744.7117      4915.7976      4541.1301     -395.23821      2493.0061      5530.9808      46438.611      1.0294201     -6214.8151    
      9080   374.11111      2231.1629      4995.1401      4459.5015     -328.73993      2513.4066      5520.3775      46438.611      1.0294201     -2158.5887    
      9120   375.7036       310.88704      4988.123       4478.4843     -311.61121      2500.7453      5510.9607      46438.611      1.0294201     -4097.5505    
      9160   384.81701      1595.7068      4882.696       4587.1186     -326.65939      2490.5373      5431.7649      46438.611      1.0294201     -2919.6659    
      9200   378.27312      929.57191      4966.5259      4509.1137     -330.37704      2497.4566      5510.9859      46438.611      1.0294201     -3509.016     
      9240   384.16712     -1811.889       4984.9073      4579.3717     -389.943        2493.9133      5593.3093      46438.611      1.0294201     -6319.636     
      9280   381.29982     -938.50045      5066.6195      4545.1928     -376.93791      2502.9934      5653.3387      46438.611      1.0294201     -5412.6031    
      9320   377.02287      652.94289      4981.949       4494.2104     -357.07931      2503.2978      5549.0833      46438.611      1.0294201     -3770.9747    
      9360   383.4918       758.88664      4884.9563      4571.3218     -393.54531      2505.6454      5485.0543      46438.611      1.0294201     -3740.9363    
      9400   379.17929      952.39712      4836.2313      4519.9155     -362.47357      2500.7621      5409.5667      46438.611      1.0294201     -3496.8236    
      9440   380.42065      169.34086      4905.5907      4534.7128     -371.02753      2489.9071      5499.3212      46438.611      1.0294201     -4294.4458    
      9480   378.65406      1641.2778      4951.5752      4513.6547     -324.52274      2500.696       5486.8247      46438.611      1.0294201     -2801.78      
      9520   381.43109     -832.80174      4896.438       4546.7575     -403.25841      2505.3179      5506.1761      46438.611      1.0294201     -5308.4447    
      9560   385.35121     -764.96409      4972.8815      4593.4864     -388.06027      2496.4935      5575.6263      46438.611      1.0294201     -5286.605     
      9600   379.58091      1398.6817      4954.9582      4524.7029     -339.60217      2495.9019      5508.9575      46438.611      1.0294201     -3055.2515    
      9640   380.19606      360.72723      4886.3363      4532.0357     -385.9163       2503.8089      5479.2866      46438.611      1.0294201     -4100.4241    
      9680   380.67021     -1097.6555      4888.2938      4537.6876     -430.25699      2510.9039      5518.0667      46438.611      1.0294201     -5564.3704    
      9720   373.18787      320.83407      4862.1949      4448.4963     -387.09672      2513.7194      5445.9283      46438.611      1.0294201     -4058.0844    
      9760   375.90414     -239.06435      4992.8752      4480.8748     -371.51307      2511.3291      5564.9593      46438.611      1.0294201     -4649.855     
      9800   380.43085     -294.43787      4971.7579      4534.8344     -384.34247      2517.461       5549.9517      46438.611      1.0294201     -4758.3441    
      9840   375.76113     -721.35425      4959.2417      4479.1701     -389.78371      2509.6798      5549.6781      46438.611      1.0294201     -5130.4669    
      9880   382.89983      192.2599       4959.2119      4564.2653     -379.82699      2500.9985      5549.2251      46438.611      1.0294201     -4300.617     
      9920   377.70625      1894.6874      4932.3378      4502.3565     -382.79814      2507.2728      5519.9041      46438.611      1.0294201     -2537.249     
      9960   375.64523     -773.21592      5053.3419      4477.7886     -370.17863      2507.1486      5628.3944      46438.611      1.0294201     -5180.9686    
     10000   381.82289      813.03591      4992.3472      4551.4278     -380.84165      2516.1819      5568.9132      46438.611      1.0294201     -3667.2043    
     10040   381.63145      1054.303       4911.7385      4549.1459     -397.19287      2516.9745      5502.2462      46438.611      1.0294201     -3423.691     
     10080   375.2375      -1801.6543      4947.5018      4472.9283     -388.37171      2507.3064      5540.0169      46438.611      1.0294201     -6204.6228    
     10120   380.78691     -132.03896      4913.2193      4539.0787     -376.53457      2503.2911      5498.2701      46438.611      1.0294201     -4600.1232    
     10160   375.07962      1515.084       4887.0782      4471.0463     -353.06625      2514.7431      5437.4488      46438.611      1.0294201     -2886.0319    
     10200   377.65497      252.24118      4904.8756      4501.7452     -349.55386      2520.4211      5444.4695      46438.611      1.0294201     -4179.0934    
     10240   371.96617     -1272.3249      4973.627       4433.9332     -422.79516      2505.5313      5602.5367      46438.611      1.0294201     -5636.9081    
     10280   379.84996     -786.1661       4853.6412      4527.91       -409.02734      2497.1602      5476.9155      46438.611      1.0294201     -5243.2563    
     10320   378.76357     -579.28734      4964.1852      4514.96       -405.43581      2501.2632      5580.1835      46438.611      1.0294201     -5023.63      
     10360   370.76051     -747.52994      4999.539       4419.5614     -402.03557      2511.6505      5601.8905      46438.611      1.0294201     -5097.9662    
     10400   387.79168      837.3972       4932.3864      4622.5774     -398.70725      2500.8899      5540.6303      46438.611      1.0294201     -3712.8797    
     10440   378.17506      438.2181       4984.8771      4507.9448     -331.50833      2490.9771      5536.7128      46438.611      1.0294201     -3999.2191    
     10480   369.86868      1730.0657      5021.2422      4408.9306     -294.97785      2489.6704      5537.2275      46438.611      1.0294201     -2609.906     
     10520   384.23781     -1228.6414      5022.2978      4580.2144     -354.7745       2494.6954      5594.1565      46438.611      1.0294201     -5737.2179    
     10560   382.87369      1487.0499      4983.9383      4563.9537     -373.39726      2503.8373      5565.3103      46438.611      1.0294201     -3005.5202    
     10600   382.64661     -676.34281      4929.8409      4561.2469     -423.21946      2502.9209      5562.5046      46438.611      1.0294201     -5166.2485    
     10640   379.19664      1171.0348      5003.3356      4520.1223     -386.72341      2511.7729      5590.7151      46438.611      1.0294201     -3278.3896    
     10680   368.11332     -1491.5243      4910.9911      4388.0063     -403.85252      2508.0179      5518.298       46438.611      1.0294201     -5810.899     
     10720   381.37692      993.88518      4829.0495      4546.1118     -390.39602      2515.6298      5414.357       46438.611      1.0294201     -3481.1221    
     10760   380.42107      492.13825      4847.5319      4534.7178     -394.95534      2524.0383      5430.1107      46438.611      1.0294201     -3971.6532    
     10800   380.50167     -449.07643      4986.3651      4535.6786     -400.93029      2517.9192      5581.0028      46438.611      1.0294201     -4913.8137    
     10840   383.46019      134.05137      4991.2621      4570.9449     -384.61565      2518.6108      5567.4024      46438.611      1.0294201     -4365.4007    
     10880   384.15384     -1180.2618      5007.1954      4579.2135     -400.3716       2503.9002      5614.7574      46438.611      1.0294201     -5687.853     
     10920   386.38238     -3359.6762      4936.7027      4605.7782     -416.63769      2492.2527      5572.643       46438.611      1.0294201     -7893.4167    
     10960   387.75304      485.28715      4920.8559      4622.1168     -366.41908      2506.5864      5491.7173      46438.611      1.0294201     -4064.5364    
     11000   386.4722      -402.14197      4967.2581      4606.8489     -419.61125      2503.3872      5596.2437      46438.611      1.0294201     -4936.9364    
     11040   387.49761      1091.371       4995.4143      4619.072      -411.53396      2514.6483      5606.4156      46438.611      1.0294201     -3455.4553    
     11080   383.34447      1662.6462      4996.4282      4569.5656     -354.74733      2513.0272      5550.4913      46438.611      1.0294201     -2835.448     
     11120   385.88072     -80.840528      4973.7657      4599.7983     -396.95076      2507.881       5573.966       46438.611      1.0294201     -4608.6946    
     11160   382.10252      908.37113      4960.8116      4554.7611     -402.27055      2510.567       5564.1455      46438.611      1.0294201     -3575.1502    
     11200   383.28708      1132.8158      4880.8291      4568.8814     -356.58618      2500.8608      5446.7258      46438.611      1.0294201     -3364.605     
     11240   383.32287      526.91047      4950.2806      4569.3081     -390.07788      2497.2165      5555.194       46438.611      1.0294201     -3970.9303    
     11280   374.80526      1668.5374      4993.9575      4467.7759     -345.36615      2510.2948      5542.1523      46438.611      1.0294201     -2729.3592    
     11320   384.6244      -424.01777      5047.7924      4584.8226     -364.80359      2509.1528      5616.9696      46438.611      1.0294201     -4937.1304    
     11360   391.32995      122.68562      5090.4182      4664.7545     -359.05718      2502.5634      5659.6142      46438.611      1.0294201     -4469.1087    
     11400   379.60137     -108.43588      4902.696       4524.9468     -352.18426      2493.3179      5473.2729      46438.611      1.0294201     -4562.6092    
     11440   379.47349     -77.706449      4914.1046      4523.4224     -381.90262      2484.6663      5522.903       46438.611      1.0294201     -4530.3792    
     11480   383.32443      789.21013      4940.4312      4569.3266     -352.64357      2496.4088      5508.4296      46438.611      1.0294201     -3708.6488    
     11520   383.05277     -1252.569       4873.0999      4566.0884     -358.75218      2514.5086      5428.1824      46438.611      1.0294201     -5747.2405    
     11560   378.05468     -357.33884      4947.8129      4506.5098     -380.44187      2508.0962      5531.9486      46438.611      1.0294201     -4793.3636    
     11600   378.18436      695.49508      4873.7785      4508.0556     -396.55222      2514.6348      5466.7986      46438.611      1.0294201     -3742.0513    
     11640   374.08033     -121.44499      4909.298       4459.1346     -398.76158      2508.9785      5511.0704      46438.611      1.0294201     -4510.8354    
     11680   376.048       -924.09199      4989.6126      4482.5897     -355.90237      2500.7213      5556.3491      46438.611      1.0294201     -5336.5707    
     11720   370.38983      130.24114      4909.9817      4415.1428     -409.07218      2504.071       5527.2147      46438.611      1.0294201     -4215.8456    
     11760   366.74369      214.65915      4927.7954      4371.6799     -423.38175      2512.1444      5551.12        46438.611      1.0294201     -4088.6445    
     11800   377.93093      689.19883      4948.9183      4505.0348     -386.96088      2494.8938      5551.843       46438.611      1.0294201     -3745.3739    
     11840   381.84096      1093.1887      4949.5235      4551.6433     -421.26514      2504.6992      5576.2154      46438.611      1.0294201     -3387.2636    
     11880   380.38991      364.3562       4941.0497      4534.3464     -417.9225       2509.4914      5561.1179      46438.611      1.0294201     -4099.0697    
     11920   376.30006      292.46943      4960.9486      4485.5943     -423.68509      2516.4596      5580.0904      46438.611      1.0294201     -4122.9669    
     11960   385.57819      1452.545       4949.0494      4596.1921     -408.15934      2514.3316      5554.5232      46438.611      1.0294201     -3071.7592    
     12000   375.70943      33.720651      4952.922       4478.5538     -364.28339      2513.6481      5514.8438      46438.611      1.0294201     -4374.7853    
     12040   374.21525      1095.0128      4986.711       4460.7428     -363.83286      2503.591       5559.413       46438.611      1.0294201     -3295.9608    
     12080   378.05056      2239.4193      4948.6323      4506.4607     -359.26844      2508.785       5511.0807      46438.611      1.0294201     -2196.5571    
     12120   376.60441     -1814.0044      5027.1692      4489.2223     -397.35087      2503.6867      5632.4879      46438.611      1.0294201     -6233.012     
     12160   388.60139     -395.96589      4978.0871      4632.2293     -348.61967      2491.4875      5546.5         46438.611      1.0294201     -4955.7437    
     12200   393.70611      294.99584      5045.776       4693.079      -348.92031      2494.2224      5610.7398      46438.611      1.0294201     -4324.6799    
     12240   385.04203     -701.04009      5035.6232      4589.8009     -394.05858      2499.1701      5640.848       46438.611      1.0294201     -5219.0531    
     12280   378.65049     -359.26928      4979.8084      4513.612      -400.1731       2506.2234      5584.2083      46438.611      1.0294201     -4802.2851    
     12320   378.92854      209.97401      4997.0282      4516.9265     -378.41768      2497.5417      5588.4087      46438.611      1.0294201     -4236.3044    
     12360   377.00849     -102.43029      4987.1352      4494.039      -381.49597      2501.3279      5578.5786      46438.611      1.0294201     -4526.1792    
     12400   376.82055     -69.126404      4864.53        4491.7987     -402.44842      2505.1754      5473.5         46438.611      1.0294201     -4490.6701    
     12440   379.12539      1000.1337      4904.5662      4519.273      -381.02882      2504.234       5492.7085      46438.611      1.0294201     -3448.4545    
     12480   388.38941      297.35204      4902.2236      4629.7025     -399.68614      2507.7027      5505.5995      46438.611      1.0294201     -4259.9385    
     12520   382.41116     -1098.6118      4844.397       4558.4403     -439.21244      2513.6043      5481.6178      46438.611      1.0294201     -5585.7547    
     12560   377.40568     -614.15124      5020.7769      4498.7736     -406.99843      2512.1286      5627.1413      46438.611      1.0294201     -5042.5607    
     12600   381.07745      1367.8659      5048.5045      4542.5421     -364.91814      2507.6901      5615.9976      46438.611      1.0294201     -3103.6275    
     12640   384.54731      1880.5505      5067.8636      4583.9036     -307.45838      2505.4996      5581.2518      46438.611      1.0294201     -2631.6576    
     12680   386.90188     -68.252442      4988.676       4611.9708     -380.73821      2500.6242      5581.1717      46438.611      1.0294201     -4608.0886    
     12720   385.21207     -424.82251      4959.1679      4591.8278     -421.33226      2507.025       5585.354       46438.611      1.0294201     -4944.8308    
     12760   375.68315     -563.00728      4947.1946      4478.2405     -372.69375      2498.0857      5532.4846      46438.611      1.0294201     -4971.2049    
     12800   373.36231      686.43188      4992.7918      4450.5756     -340.12239      2499.6113      5545.1706      46438.611      1.0294201     -3694.5334    
     12840   376.97574     -367.11943      4914.8979      4493.6486     -378.35575      2499.7082      5504.522       46438.611      1.0294201     -4790.484     
     12880   380.58574     -621.73306      4890.158       4536.6807     -381.31657      2495.7595      5486.261       46438.611      1.0294201     -5087.4567    
     12920   374.88789     -809.18654      4916.6849      4468.7609     -392.15902      2503.1553      5517.3163      46438.611      1.0294201     -5208.0527    
     12960   378.93657      2314.6967      4955.3442      4517.0222     -361.26923      2501.2542      5527.1589      46438.611      1.0294201     -2131.676     
     13000   380.64647      1277.8128      4928.2917      4537.4046     -362.92779      2501.0082      5502.5701      46438.611      1.0294201     -3188.6235    
     13040   379.05577      445.99971      4972.2977      4518.4431     -357.89058      2505.4365      5536.1347      46438.611      1.0294201     -4001.7716    
     13080   389.88952     -982.64361      4920.4079      4647.5843     -381.57507      2500.3626      5514.1532      46438.611      1.0294201     -5557.5363    
     13120   383.73637     -244.43268      4987.7516      4574.2371     -351.15443      2501.4849      5549.7719      46438.611      1.0294201     -4747.1254    
     13160   384.75624     -696.34363      4944.4401      4586.3941     -352.84493      2500.2424      5508.9053      46438.611      1.0294201     -5211.0032    
     13200   384.02138      383.2941       5008.1621      4577.6344     -352.52168      2502.4465      5569.7155      46438.611      1.0294201     -4122.7428    
     13240   384.38079      1815.9601      4967.0811      4581.9187     -350.44034      2507.3171      5521.5175      46438.611      1.0294201     -2694.294     
     13280   382.63312     -319.31273      4944.2744      4561.0861     -400.87618      2497.9021      5558.2936      46438.611      1.0294201     -4809.0601    
     13320   380.3029       448.87748      4998.7982      4533.3092     -351.45561      2491.3086      5570.3871      46438.611      1.0294201     -4013.5275    
     13360   378.94092      929.53018      4956.4684      4517.074      -331.85746      2513.9235      5485.7001      46438.611      1.0294201     -3516.8935    
     13400   375.20836     -123.37507      4982.9945      4472.581      -347.78779      2511.5905      5529.744       46438.611      1.0294201     -4526.0016    
     13440   380.04537     -594.79996      5018.137       4530.2393     -363.92081      2505.3262      5588.0571      46438.611      1.0294201     -5054.183     
     13480   375.55274     -444.03303      4978.0356      4476.6861     -363.91263      2502.6052      5550.1579      46438.611      1.0294201     -4850.7005    
     13520   378.04096      629.18962      4913.1314      4506.3463     -376.58539      2495.2642      5505.5582      46438.611      1.0294201     -3806.6741    
     13560   375.14398      115.7663       4936.74        4471.8135     -376.44535      2493.8575      5529.9682      46438.611      1.0294201     -4286.1048    
     13600   374.44553      1479.9993      4890.757       4463.4878     -388.05671      2501.2085      5488.8227      46438.611      1.0294201     -2913.6763    
     13640   376.84477      1885.3807      4939.5847      4492.0874     -374.54182      2506.6957      5519.0324      46438.611      1.0294201     -2536.4472    
     13680   386.59852      629.44983      4885.6171      4608.3546     -412.93261      2503.1707      5506.8648      46438.611      1.0294201     -3906.8267    
     13720   384.62402     -1426.9443      4995.578       4584.818      -422.47622      2502.7993      5626.3412      46438.611      1.0294201     -5940.0524    
     13760   378.38904      1004.1042      5043.7536      4510.4956     -378.83073      2500.2953      5634.0153      46438.611      1.0294201     -3435.8439    
     13800   382.89423     -1772.4614      4976.9913      4564.1985     -413.45713      2497.6292      5604.0775      46438.611      1.0294201     -6265.2726    
     13840   376.48353      836.34766      4988.9017      4487.7813     -362.23404      2499.174       5564.3778      46438.611      1.0294201     -3581.2415    
     13880   377.5301       34.058125      4934.2345      4500.2567     -395.84223      2502.0974      5539.8873      46438.611      1.0294201     -4395.8112    
     13920   376.6655      -2531.99        5094.6832      4489.9504     -432.52347      2507.0795      5729.4796      46438.611      1.0294201     -6951.7143    
     13960   384.35721      1560.7684      5034.0289      4581.6377     -411.06549      2511.7186      5643.5498      46438.611      1.0294201     -2949.2092    
     14000   378.0995      -172.65552      5106.275       4507.0441     -392.67974      2493.9659      5715.4692      46438.611      1.0294201     -4609.2062    
     14040   386.14378      51.11616       5009.5655      4602.934      -372.7895       2509.1106      5582.7624      46438.611      1.0294201     -4479.8246    
     14080   380.95336     -295.89932      5037.9807      4541.0629     -385.63161      2506.5272      5627.5865      46438.611      1.0294201     -4765.9367    
     14120   381.91577     -779.02621      4915.281       4552.5351     -383.827        2496.5222      5513.3957      46438.611      1.0294201     -5260.3563    
     14160   382.09489     -1141.8364      4852.05        4554.6702     -378.57085      2507.758       5433.5574      46438.611      1.0294201     -5625.2682    
     14200   380.46275     -837.40974      4985.6637      4535.2147     -366.09037      2505.3657      5556.7854      46438.611      1.0294201     -5301.6904    
     14240   377.63968     -359.10294      4956.6208      4501.563      -371.94205      2504.3973      5535.613       46438.611      1.0294201     -4790.2582    
     14280   376.5407       1108.8397      4950.5492      4488.4628     -342.25191      2508.4576      5496.3579      46438.611      1.0294201     -3309.4202    
     14320   380.9216       365.22118      4993.305       4540.6842     -392.76369      2510.3036      5587.0047      46438.611      1.0294201     -4104.4434    
     14360   386.27663     -2138.2154      4978.3117      4604.5176     -390.42769      2513.2603      5566.1472      46438.611      1.0294201     -6670.7149    
     14400   382.38791      698.06015      4950.0532      4558.1631     -352.60572      2501.4538      5512.6469      46438.611      1.0294201     -3788.81      
     14440   379.47942     -467.76777      5057.7333      4523.4931     -402.48724      2507.1612      5665.3463      46438.611      1.0294201     -4920.5101    
     14480   379.89141      1076.375       5055.0918      4528.4041     -371.45342      2508.1781      5630.832       46438.611      1.0294201     -3381.2016    
     14520   383.41022      1891.2258      4967.1348      4570.3493     -331.44256      2511.4382      5499.6235      46438.611      1.0294201     -2607.6399    
     14560   379.64537     -527.92684      4927.5988      4525.4713     -388.41814      2510.3127      5517.1914      46438.611      1.0294201     -4982.6164    
     14600   380.29702      1346.6968      4910.6557      4533.2391     -377.90761      2512.1652      5488.3885      46438.611      1.0294201     -3115.6392    
     14640   380.40425      80.540026      4921.7897      4534.5173     -345.33645      2507.8266      5471.3275      46438.611      1.0294201     -4383.0541    
     14680   379.30478      214.57364      4966.4144      4521.4114     -370.1071       2511.3195      5537.1747      46438.611      1.0294201     -4236.1195    
     14720   374.75277     -624.07903      4890.4347      4467.1503     -393.57886      2506.0005      5490.7914      46438.611      1.0294201     -5021.3598    
     14760   376.97794      531.62127      4860.4994      4493.6749     -382.16529      2511.7533      5441.9427      46438.611      1.0294201     -3891.7693    
     14800   375.84976     -559.49774      4971.6696      4480.2266     -371.30307      2508.1819      5543.7801      46438.611      1.0294201     -4969.6503    
     14840   384.33037     -1453.1369      4946.8229      4581.3177     -403.0514       2514.8029      5544.6546      46438.611      1.0294201     -5962.7994    
     14880   374.25217     -552.52703      5038.1917      4461.183      -398.82181      2508.6907      5640.5512      46438.611      1.0294201     -4943.9339    
     14920   377.82223      1260.0128      4883.6354      4503.739      -383.4518       2496.7638      5481.6749      46438.611      1.0294201     -3173.2844    
     14960   372.03389      1967.2402      4947.9222      4434.7404     -340.87945      2506.5448      5492.2681      46438.611      1.0294201     -2398.1377    
     15000   371.90296     -374.97861      4863.8496      4433.1797     -382.9155       2521.4995      5434.7321      46438.611      1.0294201     -4738.8202    
     15040   370.67389      221.15574      4913.0488      4418.5289     -402.36767      2523.9168      5502.7082      46438.611      1.0294201     -4128.2642    
     15080   377.49238      635.52871      4897.3471      4499.8071     -378.86987      2514.7132      5473.9509      46438.611      1.0294201     -3793.8982    
     15120   380.44525     -732.72707      4927.8398      4535.0061     -388.39871      2520.709       5506.9207      46438.611      1.0294201     -5196.8023    
     15160   378.64512     -1624.1696      4998.3346      4513.5481     -409.35642      2515.2177      5604.3198      46438.611      1.0294201     -6067.1225    
     15200   381.66206     -1933.3772      5001.8972      4549.5107     -438.17818      2515.4308      5636.6113      46438.611      1.0294201     -6411.7302    
     15240   389.07993      887.65176      5014.6143      4637.9337     -341.65105      2506.1065      5561.9376      46438.611      1.0294201     -3677.7412    
     15280   389.12477     -896.47269      4887.8274      4638.4682     -418.11093      2514.4172      5503.1769      46438.611      1.0294201     -5462.3918    
     15320   379.13203     -965.87203      4865.5569      4519.3521     -414.65171      2513.4678      5478.527       46438.611      1.0294201     -5414.5382    
     15360   375.3541       1224.7678      4944.8911      4474.3182     -373.04617      2512.7216      5517.2128      46438.611      1.0294201     -3179.5688    
     15400   372.6306       42.064051      4976.847       4441.8534     -388.00513      2507.0303      5568.3501      46438.611      1.0294201     -4330.3155    
     15440   381.76302      792.8743       4963.7146      4550.7142     -366.97947      2511.8242      5530.3485      46438.611      1.0294201     -3686.6634    
     15480   385.47322      1292.6254      4952.3291      4594.9408     -323.68264      2494.3029      5492.8996      46438.611      1.0294201     -3230.4472    
     15520   374.90086      1389.7433      4998.3149      4468.9155     -315.70625      2490.9577      5533.4983      46438.611      1.0294201     -3009.2751    
     15560   380.36463     -491.80272      4929.8694      4534.045      -324.38089      2486.1611      5479.9028      46438.611      1.0294201     -4954.9319    
     15600   377.31641     -226.90782      4992.2105      4497.7095     -400.85543      2501.2382      5602.5195      46438.611      1.0294201     -4654.2698    
     15640   377.51823     -1061.4608      4886.4406      4500.1152     -405.81937      2500.9974      5503.7905      46438.611      1.0294201     -5491.191     
     15680   384.15202     -611.72285      4866.4864      4579.1917     -378.15344      2501.3427      5455.3744      46438.611      1.0294201     -5119.2927    
     15720   378.46147     -779.85904      4909.4225      4511.3589     -356.41107      2500.5009      5478.3902      46438.611      1.0294201     -5220.657     
     15760   378.80454      1072.047       4888.3175      4515.4484     -398.40966      2503.3139      5495.5364      46438.611      1.0294201     -3372.7765    
     15800   376.45727      134.53353      4856.5763      4487.4683     -375.25317      2505.775       5438.764       46438.611      1.0294201     -4282.7475    
     15840   376.30986     -869.22791      4894.5898      4485.7111     -385.56852      2508.7855      5482.8084      46438.611      1.0294201     -5284.7792    
     15880   375.95076     -265.74929      4973.4726      4481.4306     -375.86085      2504.6755      5555.8279      46438.611      1.0294201     -4677.0871    
     15920   379.40581      1399.6315      4910.3695      4522.6157     -378.06777      2498.0295      5500.1796      46438.611      1.0294201     -3052.2471    
     15960   382.2027       266.92563      4900.8826      4555.9553     -370.17814      2502.3771      5479.4938      46438.611      1.0294201     -4217.7712    
     16000   380.88239     -1000.3526      4893.6569      4540.2169     -421.26246      2499.6459      5526.9338      46438.611      1.0294201     -5469.5572    
     16040   375.08753     -470.73752      5018.1864      4471.1406     -378.51192      2514.1443      5592.5436      46438.611      1.0294201     -4871.9462    
     16080   385.68943      63.920391      4936.8514      4597.5181     -367.76215      2516.6209      5498.3103      46438.611      1.0294201     -4461.6891    
     16120   376.3418      -325.30922      4984.6536      4486.0918     -394.52391      2524.8206      5565.5299      46438.611      1.0294201     -4741.2353    
     16160   388.33611      2196.2023      4993.8785      4629.0671     -343.90809      2506.8828      5542.2598      46438.611      1.0294201     -2360.4628    
     16200   387.69221      908.14058      5020.9172      4621.3917     -346.68922      2511.896       5566           46438.611      1.0294201     -3640.9692    
     16240   384.12991     -360.37898      4998.9949      4578.9282     -402.35824      2514.1363      5597.833       46438.611      1.0294201     -4867.6894    
     16280   380.7854      -1216.6261      4973.3684      4539.0607     -406.92682      2511.1941      5579.8005      46438.611      1.0294201     -5684.6925    
     16320   384.90114      379.45449      5052.3312      4588.1214     -396.68191      2515.6726      5645.0078      46438.611      1.0294201     -4136.9054    
     16360   390.68863      1726.51        4996.9772      4657.1098     -297.4971       2511.3445      5493.8439      46438.611      1.0294201     -2857.7591    
     16400   388.13219      337.12283      4942.3287      4626.6364     -384.22647      2512.8358      5523.515       46438.611      1.0294201     -4217.1496    
     16440   372.68784      52.516042      4992.9924      4442.5357     -378.07081      2497.2656      5586.0837      46438.611      1.0294201     -4320.5352    
     16480   379.72084      1719.6731      4907.0997      4526.3709     -357.83271      2498.4408      5477.0263      46438.611      1.0294201     -2735.9021    
     16520   379.60228      544.73429      4955.6032      4524.9576     -362.31886      2503.8906      5524.7722      46438.611      1.0294201     -3909.4497    
     16560   381.85537     -385.38034      4891.5114      4551.815      -353.71044      2502.4609      5453.8162      46438.611      1.0294201     -4866.0016    
     16600   381.85338      191.22037      4936.4013      4551.7914     -392.64135      2520.4962      5518.623       46438.611      1.0294201     -4289.3776    
     16640   373.78123      561.10055      4915.8842      4455.5693     -395.90512      2513.4362      5509.0599      46438.611      1.0294201     -3824.7803    
     16680   376.00263      375.15255      4869.2473      4482.0489     -385.76189      2509.3579      5454.9785      46438.611      1.0294201     -4036.7939    
     16720   379.5632      -1541.3345      4986.9373      4524.4918     -404.84772      2511.6481      5589.8026      46438.611      1.0294201     -5995.06      
     16760   377.97436     -381.44361      5034.4201      4505.5524     -354.0494       2508.0587      5590.8293      46438.611      1.0294201     -4816.5258    
     16800   382.62022     -820.96298      5015.8649      4560.9322     -359.5337       2516.83        5568.6103      46438.611      1.0294201     -5310.5589    
     16840   378.35733     -3168.5777      4895.9854      4510.1175     -423.56951      2516.1584      5512.7564      46438.611      1.0294201     -7608.1536    
     16880   375.47568     -17.068836      4891.4182      4475.7675     -383.95523      2517.8659      5466.6913      46438.611      1.0294201     -4422.8321    
     16920   372.27108      2336.1354      4949.477       4437.5679     -367.92942      2517.1143      5509.2554      46438.611      1.0294201     -2032.0257    
     16960   370.70507      483.00877      4872.8565      4418.9006     -393.85483      2505.8118      5470.9932      46438.611      1.0294201     -3866.777     
     17000   375.64777     -941.48489      4901.9539      4477.8188     -391.34282      2509.3323      5494.3172      46438.611      1.0294201     -5349.2673    
     17040   379.40828      1445.2527      4858.9713      4522.6451     -376.8267       2504.2231      5442.4006      46438.611      1.0294201     -3006.655     
     17080   376.88573      1347.9243      4985.4796      4492.5757     -370.43602      2506.6523      5559.4084      46438.611      1.0294201     -3074.3842    
     17120   378.46804     -1562.0407      5031.0816      4511.4372     -341.31668      2507.2458      5573.667       46438.611      1.0294201     -6002.9157    
     17160   381.59838     -1148.252       5086.1574      4548.7517     -376.33999      2506.4235      5666.1294      46438.611      1.0294201     -5625.8579    
     17200   386.79342      196.38505      5013.5878      4610.6779     -391.93057      2514.0553      5600.5965      46438.611      1.0294201     -4342.1785    
     17240   378.67866      1390.4891      5015.1854      4513.9479     -383.22264      2517.1796      5591.7521      46438.611      1.0294201     -3052.8573    
     17280   384.12777      287.71475      4966.7499      4578.9027     -351.0823       2512.1685      5515.1565      46438.611      1.0294201     -4219.5705    
     17320   384.3299      -669.02228      4882.4861      4581.312      -386.20866      2517.5939      5460.881       46438.611      1.0294201     -5178.6793    
     17360   380.25502      403.20442      4943.2323      4532.7385     -369.48107      2515.8915      5506.0773      46438.611      1.0294201     -4058.6387    
     17400   384.20756      1343.6966      4978.6212      4579.8538     -373.73193      2510.9098      5550.8962      46438.611      1.0294201     -3164.5249    
     17440   384.22556      1420.3176      4938.5212      4580.0684     -363.36693      2513.9626      5496.6403      46438.611      1.0294201     -3088.1152    
     17480   378.47581      545.34028      5008.5844      4511.5298     -410.30496      2508.164       5619.326       46438.611      1.0294201     -3895.6259    
     17520   384.92405     -675.18623      4938.4553      4588.3945     -425.88458      2492.2458      5583.5748      46438.611      1.0294201     -5191.8149    
     17560   375.82312      606.93524      5037.1114      4479.909      -355.96749      2499.4036      5604.672       46438.611      1.0294201     -3802.9047    
     17600   381.91989      100.55864      4939.174       4552.5842     -368.1604       2496.6307      5522.0223      46438.611      1.0294201     -4380.8198    
     17640   383.51564     -337.03448      4958.3838      4571.6059     -378.35695      2502.7301      5544.7464      46438.611      1.0294201     -4837.1371    
     17680   378.45881      511.44241      4923.391       4511.3272     -389.7912       2502.7048      5520.4045      46438.611      1.0294201     -3929.3244    
     17720   376.87781      1000.4247      4911.4147      4492.4812     -364.0598       2508.0122      5477.5097      46438.611      1.0294201     -3421.7909    
     17760   384.80874     -1373.0345      4818.8528      4587.02       -426.74725      2510.6543      5444.9024      46438.611      1.0294201     -5888.3101    
     17800   376.86007      833.07466      5001.1956      4492.2698     -342.93681      2512.3112      5542.2264      46438.611      1.0294201     -3588.9328    
     17840   380.58368      1756.2733      4990.4897      4536.6562     -373.72968      2512.5424      5563.4353      46438.611      1.0294201     -2709.4262    
     17880   375.93464     -678.25774      5083.2986      4481.2384     -390.67735      2512.7649      5672.5301      46438.611      1.0294201     -5089.4063    
     17920   388.82705     -252.80965      4913.9531      4634.9192     -397.79703      2506.6331      5516.4775      46438.611      1.0294201     -4815.2354    
     17960   381.82112      642.32071      4993.7735      4551.4068     -398.5291       2510.5745      5591.6599      46438.611      1.0294201     -3837.8988    
     18000   389.34434      163.68386      4985.0442      4641.0855     -365.47405      2502.6362      5557.1008      46438.611      1.0294201     -4404.8116    
     18040   381.82339     -1362.8834      4955.0692      4551.4339     -421.5209       2506.6989      5580.8342      46438.611      1.0294201     -5843.1295    
     18080   378.67283     -2076.0435      5026.0057      4513.8783     -437.5048       2505.4151      5669.7585      46438.611      1.0294201     -6519.3214    
     18120   381.67171      437.67209      4984.809       4549.6258     -367.23008      2509.2437      5553.3235      46438.611      1.0294201     -4040.7942    
     18160   378.41533     -1317.1261      4940.6517      4510.8089     -411.92102      2506.9925      5556.7743      46438.611      1.0294201     -5757.3826    
     18200   378.20119      444.1514       4971.8413      4508.2563     -405.3934       2507.736       5581.2392      46438.611      1.0294201     -3993.5924    
     18240   384.59636      1063.0706      4985.1929      4584.4883     -373.11093      2523.8681      5545.7924      46438.611      1.0294201     -3449.713     
     18280   384.45186      485.50761      4957.9369      4582.7658     -395.9596       2519.1321      5545.7314      46438.611      1.0294201     -4025.5804    
     18320   385.50364      2387.9643      5017.6046      4595.3034     -362.20303      2515.2375      5575.2649      46438.611      1.0294201     -2135.4651    
     18360   389.19309      2536.5586      4961.1608      4639.2826     -385.55437      2504.426       5554.006       46438.611      1.0294201     -2030.1622    
     18400   382.52425     -1438.4801      4858.2645      4559.7882     -427.61732      2513.9708      5481.1177      46438.611      1.0294201     -5926.9499    
     18440   372.35231     -2276.9517      4925.8897      4438.5361     -431.82079      2502.9049      5566.7632      46438.611      1.0294201     -6646.0658    
     18480   381.60752     -1778.9971      4923.3038      4548.8606     -435.14862      2498.8849      5572.2023      46438.611      1.0294201     -6256.7102    
     18520   381.2826       65.210047      4993.5171      4544.9875     -379.37292      2494.085       5590.1387      46438.611      1.0294201     -4408.6905    
     18560   382.54534      1285.8471      4989.3431      4560.0397     -303.88595      2500.5746      5505.1601      46438.611      1.0294201     -3202.8702    
     18600   371.99277     -993.57604      4970.6032      4434.2503     -364.95452      2501.6435      5545.1631      46438.611      1.0294201     -5358.4714    
     18640   366.51284     -487.25989      4922.6046      4368.9281     -397.97331      2504.2519      5528.3435      46438.611      1.0294201     -4787.8548    
     18680   371.64832     -40.523451      4892.2745      4430.1444     -372.25812      2510.12        5465.8362      46438.611      1.0294201     -4401.3772    
     18720   375.67546     -679.98887      4827.391       4478.1489     -387.21396      2504.3753      5422.6943      46438.611      1.0294201     -5088.0963    
     18760   374.68794     -742.03247      4874.7106      4466.3774     -408.23131      2510.0816      5483.4178      46438.611      1.0294201     -5138.5525    
[...]
     30560   375.97456     -482.53302      5089.6366      4481.7143     -347.8412       2504.9005      5646.7423      46438.611      1.0294201     -4894.15      
     30600   380.87541      642.6404       4940.7475      4540.1337     -357.19944      2501.3969      5508.8852      46438.611      1.0294201     -3826.4823    
     30640   369.1104       3.8758771      4965.9392      4399.8917     -381.3302       2514.912       5545.2618      46438.611      1.0294201     -4327.1983    
     30680   373.28365      2663.2885      5001.8921      4449.6379     -356.12664      2525.85        5544.989       46438.611      1.0294201     -1716.7538    
     30720   379.56576      16.912634      4900.6148      4524.5223     -374.27874      2506.5779      5481.8549      46438.611      1.0294201     -4436.8428    
     30760   372.17724     -436.88549      5028.8186      4436.4493     -386.13282      2509.5393      5619.0272      46438.611      1.0294201     -4803.9455    
     30800   376.02864      2741.084       5031.1135      4482.3589     -322.01133      2508.5286      5557.6442      46438.611      1.0294201     -1671.1676    
     30840   385.85151      1652.7425      4914.0614      4599.4501     -313.51346      2505.3472      5434.1817      46438.611      1.0294201     -2874.7689    
     30880   386.50858     -1013.6077      4930.9606      4607.2826     -374.04654      2501.2354      5516.4102      46438.611      1.0294201     -5548.829     
     30920   377.37063      1132.561       5036.0923      4498.3558     -326.28826      2502.5047      5573.4465      46438.611      1.0294201     -3295.4372    
     30960   378.88319      14.652478      4975.641       4516.3859     -342.23084      2497.6648      5534.0398      46438.611      1.0294201     -4431.0938    
     31000   374.75048     -120.08614      5057.8084      4467.1229     -359.90598      2504.7502      5624.7989      46438.611      1.0294201     -4517.34      
     31040   377.85454      828.58784      4933.55        4504.1242     -353.95644      2513.2693      5486.5434      46438.611      1.0294201     -3605.0885    
     31080   371.34794      1105.611       4961.4818      4426.5637     -365.33215      2523.8939      5516.5437      46438.611      1.0294201     -3251.718     
     31120   372.86889      546.27898      4997.0441      4444.6938     -354.90621      2526.2803      5537.4436      46438.611      1.0294201     -3828.8966    
     31160   372.80709      2031.5619      5003.1836      4443.9572     -358.26407      2513.1131      5560.2119      46438.611      1.0294201     -2342.8886    
     31200   381.32742      1687.7059      4941.4686      4545.5217     -349.46137      2501.1958      5502.34        46438.611      1.0294201     -2786.7205    
     31240   382.14945     -864.81933      4963.2982      4555.3206     -355.8111       2509.3619      5523.2772      46438.611      1.0294201     -5348.8913    
     31280   382.25013     -286.52596      4922.6888      4556.5208     -371.99039      2505.5907      5502.9331      46438.611      1.0294201     -4771.7794    
     31320   373.47427      394.23286      4927.3345      4451.9102     -394.73305      2510.3922      5524.2741      46438.611      1.0294201     -3988.0462    
     31360   376.5379      -1002.7079      4919.3495      4488.4294     -387.42432      2510.3451      5508.6146      46438.611      1.0294201     -5420.935     
     31400   374.86319      451.24111      5014.2681      4468.4664     -323.1844       2511.6346      5536.9468      46438.611      1.0294201     -3947.3352    
     31440   375.74143     -66.433269      4976.2016      4478.9353     -336.8937       2504.7342      5520.5045      46438.611      1.0294201     -4475.3147    
     31480   375.56131      969.39382      4963.9076      4476.7882     -343.24086      2506.6422      5512.4745      46438.611      1.0294201     -3437.3741    
     31520   378.20629     -950.04047      5027.4658      4508.3171     -387.7161       2498.7716      5628.981       46438.611      1.0294201     -5387.8441    
     31560   387.33797     -2200.9275      5012.5386      4617.1691     -397.77398      2499.1213      5622.688       46438.611      1.0294201     -6745.8807    
     31600   381.91783      1037.0658      4956.7165      4552.5596     -341.94343      2498.8477      5510.1956      46438.611      1.0294201     -3444.2884    
     31640   386.69464      1040.5078      4903.0677      4609.5004     -372.78549      2501.0013      5486.6246      46438.611      1.0294201     -3496.8967    
     31680   377.95351      1962.4813      4979.9162      4505.3039     -363.91833      2502.9111      5552.4055      46438.611      1.0294201     -2472.3564    
     31720   368.65802      2006.8066      4951.975       4394.4992     -334.85895      2496.0677      5503.971       46438.611      1.0294201     -2318.9594    
     31760   376.34684     -466.95868      4889.7473      4486.1519     -429.72555      2507.8486      5522.3476      46438.611      1.0294201     -4882.9439    
     31800   376.68006     -2781.7511      5011.6995      4490.124      -433.8976       2508.0526      5650.1789      46438.611      1.0294201     -7201.6462    
     31840   376.43149      1420.3473      4993.4884      4487.161      -365.49532      2503.4001      5569.275       46438.611      1.0294201     -2996.6312    
     31880   377.19        -573.47218      4967.8843      4496.2026     -419.30292      2498.3864      5602.0593      46438.611      1.0294201     -4999.3509    
     31920   376.74637      1388.1469      4934.0659      4490.9145     -357.51989      2494.7431      5508.9207      46438.611      1.0294201     -3032.5264    
     31960   380.58626     -651.91349      4872.6922      4536.687      -358.46235      2493.9882      5448.4898      46438.611      1.0294201     -5117.6434    
     32000   375.15899      2119.107       4929.3161      4471.9925     -310.75886      2492.8276      5457.5242      46438.611      1.0294201     -2282.9403    
     32040   375.08968      1027.6339      4981.2772      4471.1663     -319.31207      2495.4031      5514.1419      46438.611      1.0294201     -3373.6001    
     32080   381.01578      652.03584      4904.6001      4541.8069     -365.00271      2506.5055      5474.814       46438.611      1.0294201     -3818.7339    
     32120   376.37816      244.12729      4977.8882      4486.5253     -398.1401       2511.0709      5577.1686      46438.611      1.0294201     -4172.2255    
     32160   378.10137      182.1344       4959.3195      4507.0664     -382.34318      2493.0232      5560.752       46438.611      1.0294201     -4254.4382    
     32200   376.00582      744.29964      4904.5129      4482.087      -368.64102      2500.7529      5484.513       46438.611      1.0294201     -3667.6842    
     32240   371.13427     -38.837179      4984.279       4424.0167     -356.95167      2492.1892      5561.9294      46438.611      1.0294201     -4393.6591    
     32280   376.7646       417.68011      4940.3082      4491.1317     -382.86251      2506.9928      5529.2287      46438.611      1.0294201     -4003.207     
     32320   377.39281      624.45977      5017.9717      4498.6202     -380.45812      2506.3432      5603.6155      46438.611      1.0294201     -3803.7987    
     32360   375.62956      37.338463      4942.2963      4477.6018     -387.04118      2500.8853      5540.3559      46438.611      1.0294201     -4370.2304    
     32400   371.03464      42.903803      4917.4189      4422.8292     -365.33267      2499.2181      5495.0654      46438.611      1.0294201     -4310.7491    
     32440   366.81831      633.9436       4925.5908      4372.5694     -367.78573      2496.7084      5508.8075      46438.611      1.0294201     -3670.2356    
     32480   378.20747     -482.41976      4871.4288      4508.3311     -405.61182      2495.3729      5494.1842      46438.611      1.0294201     -4920.2373    
     32520   386.10026      3673.857       4851.1851      4602.4152     -341.02693      2500.7027      5404.069       46438.611      1.0294201     -856.57304    
     32560   380.64407      826.48007      4959.1139      4537.376      -346.20029      2496.9054      5520.4962      46438.611      1.0294201     -3639.9281    
     32600   375.87059     -926.5049       4919.01        4480.4749     -402.56246      2499.6337      5533.8271      46438.611      1.0294201     -5336.9019    
     32640   376.94726     -1476.3805      4830.544       4493.3091     -390.16873      2503.3067      5428.8604      46438.611      1.0294201     -5899.411     
     32680   377.74731     -243.18233      4919.6657      4502.8459     -378.61052      2497.2746      5513.852       46438.611      1.0294201     -4675.6004    
     32720   369.62364      1427.8016      4936.7218      4406.0097     -405.34378      2500.013       5554.3935      46438.611      1.0294201     -2909.2949    
     32760   376.37317      584.64635      4956.7085      4486.4658     -390.79323      2496.7544      5564.4449      46438.611      1.0294201     -3831.6479    
     32800   377.63378      728.62938      4933.911       4501.4926     -365.78768      2499.4224      5512.3225      46438.611      1.0294201     -3702.4566    
     32840   381.77788     -540.13573      4944.1278      4550.8914     -388.90312      2507.3888      5537.6791      46438.611      1.0294201     -5019.8478    
     32880   380.24946      167.5401       4940.1366      4532.6722     -405.91964      2507.8731      5551.0343      46438.611      1.0294201     -4294.2378    
     32920   379.06842      1011.5266      4921.4456      4518.5938     -357.86987      2498.3474      5494.453       46438.611      1.0294201     -3436.3932    
     32960   380.67726      27.920453      4861.0362      4537.7717     -365.99816      2494.3558      5446.2187      46438.611      1.0294201     -4438.8771    
     33000   374.50679      1347.0335      4808.5594      4464.218      -345.98381      2492.5758      5375.2191      46438.611      1.0294201     -3047.3609    
     33040   371.30871     -175.48299      4993.7802      4426.0961     -369.73524      2503.5019      5571.0867      46438.611      1.0294201     -4532.3517    
     33080   373.84451      37.230909      4956.6206      4456.3236     -370.41356      2494.7854      5544.8117      46438.611      1.0294201     -4349.3925    
     33120   376.23773      1862.316       4896.1798      4484.8513     -329.56446      2493.6559      5444.2968      46438.611      1.0294201     -2552.389     
     33160   371.02678      589.93479      4863.8733      4422.7354     -327.60746      2492.1776      5412.4362      46438.611      1.0294201     -3763.6258    
     33200   366.41164     -665.14826      4876.6095      4367.7218     -387.58936      2496.8102      5480.019       46438.611      1.0294201     -4964.5557    
     33240   380.30379      1705.0045      4919.2805      4533.3199     -342.47579      2490.2226      5484.1719      46438.611      1.0294201     -2757.4109    
     33280   379.29858     -195.34375      4942.7366      4521.3375     -372.11132      2488.954       5539.2754      46438.611      1.0294201     -4645.9642    
     33320   385.3925      -79.942904      4876.5046      4593.9786     -379.35764      2507.7784      5461.7464      46438.611      1.0294201     -4602.0683    
     33360   381.27044      755.63135      4960.0906      4544.8425     -343.77223      2505.1939      5511.2644      46438.611      1.0294201     -3718.1265    
     33400   376.20005      774.99034      5001.5503      4484.4022     -355.64988      2507.3484      5562.7726      46438.611      1.0294201     -3639.2725    
     33440   382.87467      239.33349      4926.8694      4563.9654     -390.747        2498.5632      5532.4326      46438.611      1.0294201     -4253.2481    
     33480   383.62521      1065.7679      4886.1956      4572.9121     -369.95275      2500.694       5468.0624      46438.611      1.0294201     -3435.6204    
     33520   372.47463     -1014.4362      4947.1874      4439.9942     -385.3083       2505.4457      5538.8399      46438.611      1.0294201     -5384.9857    
     33560   376.44529      1049.0271      4952.4817      4487.3255     -342.17892      2497.6533      5510.6615      46438.611      1.0294201     -3368.1133    
     33600   382.87138      1783.0806      4860.8188      4563.9262     -349.84343      2488.0527      5435.2125      46438.611      1.0294201     -2709.4625    
     33640   372.1717       966.57682      4960.1434      4436.3832     -336.96823      2491.9504      5517.2318      46438.611      1.0294201     -3400.4181    
     33680   376.85253     -2286.0785      4822.9611      4492.1799     -406.81008      2487.8223      5455.2583      46438.611      1.0294201     -6707.9974    
     33720   370.01442     -1187.7556      4940.8768      4410.6679     -391.65774      2486.5911      5559.6681      46438.611      1.0294201     -5529.4374    
     33760   378.82081      833.26853      4860.6463      4515.6423     -400.89356      2488.0759      5486.8798      46438.611      1.0294201     -3611.7459    
     33800   377.58877      559.34566      4892.8653      4500.9561     -375.79656      2497.5818      5484.1682      46438.611      1.0294201     -3871.2122    
     33840   375.81705      1356.0424      4923.7265      4479.8367     -380.0761       2508.8269      5507.6732      46438.611      1.0294201     -3053.7264    
     33880   366.84575     -1386.129       4981.8555      4372.8965     -386.2555       2502.1793      5578.2548      46438.611      1.0294201     -5690.6302    
     33920   374.84691     -763.86204      4971.614       4468.2725     -367.52263      2492.5303      5559.5625      46438.611      1.0294201     -5162.2474    
     33960   387.97267     -862.58772      4878.1238      4624.7348     -378.93695      2493.216       5475.99        46438.611      1.0294201     -5414.9883    
     34000   381.27287      1273.0655      4889.6333      4544.8716     -377.42311      2502.6323      5477.0238      46438.611      1.0294201     -3200.721     
     34040   374.74656      104.50554      4983.1052      4467.0762     -353.53609      2505.2294      5543.6817      46438.611      1.0294201     -4292.7023    
     34080   378.30325      93.531941      4962.2867      4509.4729     -353.09622      2507.7458      5521.83        46438.611      1.0294201     -4345.4095    
     34120   384.61865      1005.4377      4954.7374      4584.754      -361.90248      2514.474       5516.8137      46438.611      1.0294201     -3507.6075    
     34160   373.15978     -78.205013      4979.8855      4448.1614     -331.91202      2508.3801      5516.9242      46438.611      1.0294201     -4456.7939    
     34200   379.9281      -159.20799      4934.8911      4528.8415     -344.28952      2510.5011      5481.8539      46438.611      1.0294201     -4617.2151    
     34240   380.98426     -491.00778      5021.996       4541.4312     -363.39813      2493.4257      5605.3236      46438.611      1.0294201     -4961.4077    
     34280   385.54472     -845.3263       4998.4603      4595.7931     -348.45666      2498.6438      5560.4848      46438.611      1.0294201     -5369.2378    
     34320   375.48391     -38.701926      4956.3062      4475.8656     -344.29418      2503.6229      5510.2103      46438.611      1.0294201     -4444.5617    
     34360   378.17985      1989.3894      4945.0337      4508.0019     -366.15841      2505.4604      5519.6959      46438.611      1.0294201     -2448.104     
     34400   382.68982      2036.9189      4944.9644      4561.7619     -368.94823      2516.3086      5510.476       46438.611      1.0294201     -2453.4936    
     34440   375.75396      13.868114      4936.6503      4479.0847     -365.04228      2517.0487      5497.8347      46438.611      1.0294201     -4395.1604    
     34480   379.4613       2409.7525      4920.8335      4523.2772     -330.12416      2507.5359      5455.7806      46438.611      1.0294201     -2042.7773    
     34520   373.64499     -1112.2929      5033.7701      4453.9452     -381.5842       2512.9848      5615.5324      46438.611      1.0294201     -5496.5752    
     34560   378.10847     -622.87159      5010.4766      4507.1511     -363.41397      2504.3865      5582.3206      46438.611      1.0294201     -5059.5275    
     34600   378.76169     -1021.4169      4939.8651      4514.9375     -359.09768      2502.5607      5509.0543      46438.611      1.0294201     -5465.7375    
     34640   371.33483     -1218.2065      4933.8954      4426.4075     -354.10788      2500.5491      5500.3657      46438.611      1.0294201     -5575.3817    
     34680   377.75422      983.24165      4968.7549      4502.9283     -288.33767      2498.6662      5470.8318      46438.611      1.0294201     -3449.2575    
     34720   377.40759      1237.7227      5018.5743      4498.7964     -353.32671      2510.6982      5575.7288      46438.611      1.0294201     -3190.7092    
     34760   381.12418     -689.92842      5016.6359      4543.099      -353.03649      2514.646       5568.121       46438.611      1.0294201     -5161.9701    
     34800   380.79468      304.54547      4959.0562      4539.1714     -325.27529      2511.6096      5484.8936      46438.611      1.0294201     -4163.6299    
     34840   379.85165      435.23348      4901.7436      4527.9302     -395.37054      2519.2321      5489.5435      46438.611      1.0294201     -4021.8766    
     34880   376.74185      307.28558      4991.6962      4490.8606     -367.81933      2513.5991      5559.8884      46438.611      1.0294201     -4113.3347    
     34920   377.6794       474.9479       4994.8031      4502.0364     -374.46848      2517.2403      5565.0479      46438.611      1.0294201     -3956.6733    
     34960   383.92807      1535.4673      4947.6703      4576.5222     -339.76402      2503.6914      5496.2624      46438.611      1.0294201     -2969.4747    
     35000   380.85304      201.05896      5000.439       4539.8671     -393.06219      2499.353       5606.78        46438.611      1.0294201     -4267.8013    
     35040   380.43186      1112.4728      4987.767       4534.8464     -359.96376      2511.1598      5549.9882      46438.611      1.0294201     -3351.4453    
     35080   383.98633      1100.2765      4880.2197      4577.2167     -317.54894      2514.7852      5396.6283      46438.611      1.0294201     -3405.3492    
     35120   375.98591     -489.4812       4973.2033      4481.8496     -347.30039      2513.3938      5520.5885      46438.611      1.0294201     -4901.2314    
     35160   383.13964     -156.18635      4931.028       4567.1239     -346.45789      2504.2245      5486.5313      46438.611      1.0294201     -4651.8771    
     35200   376.74368      1534.3301      4948.791       4490.8824     -362.99367      2514.013       5511.3924      46438.611      1.0294201     -2886.3116    
     35240   380.23933     -907.81794      4956.7303      4532.5514     -376.8133       2515.4056      5531.4189      46438.611      1.0294201     -5369.4769    
     35280   379.40062      466.90424      4911.3536      4522.5538     -379.21396      2523.7804      5479.9076      46438.611      1.0294201     -3984.9135    
     35320   374.52697      726.27186      5029.9885      4464.4586     -367.16701      2521.6669      5588.7976      46438.611      1.0294201     -3668.3593    
     35360   381.95263     -985.99134      4989.1376      4552.9744     -377.27797      2509.2206      5571.2107      46438.611      1.0294201     -5467.7539    
     35400   376.54584      1661.8379      4993.8227      4488.524      -340.20197      2507.2754      5540.341       46438.611      1.0294201     -2756.4823    
     35440   376.31648     -1940.3115      4947.4302      4485.79       -368.67193      2509.1021      5520.9382      46438.611      1.0294201     -6355.9405    
