LAMMPS (29 Sep 2021 - Update 2)
OMP_NUM_THREADS environment is not set. Defaulting to 1 thread. (src/comm.cpp:98)
  using 1 OpenMP thread(s) per MPI task
# Create initial configuration

units real
atom_style full
boundary p p p

# Potential
pair_style lj/cut/coul/long 9.0 9.0
pair_modify mix geometric
bond_style      harmonic
angle_style     harmonic
dihedral_style  opls
improper_style  cvff
special_bonds lj/coul 0.0 0.0 0.5
pair_modify tail yes
kspace_style pppm 1.0e-4

# Setup initial structure
read_data data.initial
Reading data file ...
  orthogonal box = (0.0000000 0.0000000 0.0000000) to (35.671200 35.671200 35.671200)
  3 by 3 by 4 MPI processor grid
  reading atoms ...
  4000 atoms
  reading velocities ...
  4000 velocities
  scanning bonds ...
  2 = max bonds/atom
  scanning angles ...
  3 = max angles/atom
  scanning dihedrals ...
  6 = max dihedrals/atom
  scanning impropers ...
  2 = max impropers/atom
  reading bonds ...
  4250 bonds
  reading angles ...
  6750 angles
  reading dihedrals ...
  10000 dihedrals
  reading impropers ...
  2250 impropers
Finding 1-2 1-3 1-4 neighbors ...
  special bond factors lj:    0        0        0.5     
  special bond factors coul:  0        0        0.5     
     3 = max # of 1-2 neighbors
     6 = max # of 1-3 neighbors
    16 = max # of 1-4 neighbors
    18 = max # of special neighbors
  special bonds CPU = 0.003 seconds
  read_data CPU = 0.176 seconds
variable L index 35.2
change_box all x final 0 $L y final 0 $L z final 0 $L boundary p p p remap units box
change_box all x final 0 35.2 y final 0 $L z final 0 $L boundary p p p remap units box
change_box all x final 0 35.2 y final 0 35.2 z final 0 $L boundary p p p remap units box
change_box all x final 0 35.2 y final 0 35.2 z final 0 35.2 boundary p p p remap units box
Changing box ...
  orthogonal box = (0.0000000 0.0000000 0.0000000) to (35.200000 35.671200 35.671200)
  orthogonal box = (0.0000000 0.0000000 0.0000000) to (35.200000 35.200000 35.671200)
  orthogonal box = (0.0000000 0.0000000 0.0000000) to (35.200000 35.200000 35.200000)

# Integrator
timestep 2.0
variable T index 380
fix npt all npt temp $T $T 100.0 iso 1.0 1.0 1000.0
fix npt all npt temp 380 $T 100.0 iso 1.0 1.0 1000.0
fix npt all npt temp 380 380 100.0 iso 1.0 1.0 1000.0
fix no_cm_drift all momentum 100 linear 1 1 1
neigh_modify every 1 check yes

# Compute virial
compute virial all pressure NULL virial

# Output
thermo_style custom step temp press pe ke evdwl ecoul emol vol density c_virial
thermo 16
dump dumpATOM all atom 1048576 dump.constant_volume
dump_modify dumpATOM image yes
#dump XYZ all xyz 50000 constant_volume.xyz
restart 1048576 crash.1.restart crash.2.restart

# Run simulation
variable run index 134217728
run ${run}
run 134217728
PPPM initialization ...
  using 12-bit tables for long-range coulomb (src/kspace.cpp:340)
  G vector (1/distance) = 0.22136064
  grid = 10 10 10
  stencil order = 5
  estimated absolute RMS force accuracy = 0.029944535
  estimated relative force accuracy = 9.0177078e-05
  using double precision FFTW3
  3d grid and FFT values/proc = 648 48
Neighbor list info ...
  update every 1 steps, delay 10 steps, check yes
  max neighbors/atom: 2000, page size: 100000
  master list distance cutoff = 11
  ghost atom cutoff = 11
  binsize = 5.5, bins = 7 7 7
  1 neighbor lists, perpetual/occasional/extra = 1 0 0
  (1) pair lj/cut/coul/long, perpetual
      attributes: half, newton on
      pair build: half/bin/newton
      stencil: half/bin/3d
      bin: standard
Per MPI rank memory allocation (min/avg/max) = 12.20 | 12.21 | 12.21 Mbytes
Step Temp Press PotEng KinEng E_vdwl E_coul E_mol Volume Density c_virial 
       0    344.38691    46254.123    5399.0493    4105.1812     104.0372     2510.519    5527.8607    43614.208    1.0960841    41951.461 
      16    366.31621    14146.029    5139.5404    4366.5842   -397.51221    2518.9528     5761.118    43785.251    1.0918023    9587.2674 
      32    373.95781   -1366.3072    5088.1924    4457.6741   -519.85072    2510.5055    5837.5697    43964.172     1.087359   -6001.2276 
      48    378.41946    17459.655    5086.3759    4510.8581   -145.03538    2484.2958    5489.5327    44099.242    1.0840286    12783.801 
      64    380.01165    502.56178    5102.4442    4529.8375   -454.56225    2494.0607    5806.2986    44427.314    1.0760236   -4158.2913 
      80    384.41853   -7721.8753    5070.2393    4582.3686   -650.84292    2528.3936    5933.7733    44682.374    1.0698814   -12409.865 
      96      391.705    5212.1531    4980.7985    4669.2252    -505.5687    2525.4518    5703.1129    44876.183    1.0652608    455.93499 
     112    363.42505   -738.81967    5369.2725    4332.1208   -464.55144    2526.6545    6050.4304     45114.82    1.0596261   -5128.3108 
     128    374.89421   -9358.5055    5260.3693    4468.8362   -486.94092     2531.218    5957.7699    45256.396    1.0563112   -13872.358 
     144    378.81909   -12978.286    5216.8697    4515.6218   -536.16857    2521.1586    5971.5019    45419.418    1.0525199   -17523.024 
     160    372.19652   -6981.1662    5363.4096    4436.6791   -441.49209    2507.6799     6040.861    45567.747    1.0490938   -11431.917 
     176    381.71276    5037.3498    5274.9117    4550.1151   -309.94459    2511.3427    5816.7785    45606.334    1.0482061    476.66485 
     192    381.65341   -1212.4698    5277.0778    4549.4076   -477.16218    2525.1052    5971.8244     45740.55    1.0451304   -5759.0654 
     208    375.21406    2188.1482     5401.859    4472.6489   -480.13363    2513.8857    6111.2204    45845.565    1.0427364   -2271.4972 
     224    382.97024    13462.526     5323.929    4565.1046   -155.97914    2504.0101    5718.9161    45825.103     1.043202    8908.6613 
     240    381.29896   -3559.9311     5338.323    4545.1825   -387.21274    2516.0816    5950.4442    45923.495    1.0409669   -8084.2087 
     256    376.19225   -4411.0732    5424.3763    4484.3092   -418.84084    2511.0727    6073.5526    45992.069    1.0394149   -8868.1022 
     272    380.81838    11567.976    5373.8497    4539.4539   -230.23597    2509.3678    5835.5474    45957.903    1.0401876    7052.7833 
     288    390.94786     -2129.68    5233.0425    4660.1999   -461.39433    2525.3534    5911.3798    46034.214    1.0384633   -6757.2892 
     304    387.05899   -4695.3215    5277.7375    4613.8435   -528.33994    2533.1405    6015.3579      46058.4    1.0379179   -9274.4925 
     320    381.23356    5840.5233    5314.2411    4544.4029   -318.52424     2523.615    5850.5379    46013.263    1.0389361    1325.8466 
     336    381.51118   -7850.3222    5240.1331    4547.7123   -462.11076    2526.3726    5916.5219    46052.427    1.0380526   -12364.444 
     352    373.08024   -11777.877    5289.2316    4447.2133   -493.04674    2535.0488    5987.6237     46030.33    1.0385509   -16194.362 
     368     367.9439    1579.1969    5320.6469    4385.9868   -349.62736    2530.9818    5879.4131    45968.219    1.0399541   -2782.3695 
     384    376.57894   -473.47023    5185.7261    4488.9186   -449.63864    2526.8936    5849.8453    45981.667      1.03965   -4936.0899 
     400    375.77218    215.62385    5212.1582    4479.3019    -438.2928    2537.2339    5854.1966    45919.778    1.0410512   -4243.4371 
     416    379.19533     8163.808    5193.6553    4520.1067   -324.35604    2534.0239    5725.4181    45853.175    1.0425633    3657.5908 
     432    377.50798    4942.4351    5233.0593    4499.9931   -371.50547    2526.4251    5819.9603    45855.705    1.0425058    456.51727 
     448    375.29126    4190.1238    5307.2979    4473.5692   -333.17317    2528.2768     5852.266    45782.727    1.0441676   -276.56149 
     464    379.75152    5526.8988    5301.6514    4526.7366   -319.73391    2533.7319    5827.6959    45729.879    1.0453743    1001.9046 
     480    384.67592    5548.2194    5263.6419    4585.4368   -369.47791    2520.4383    5854.8119    45734.397     1.045271    965.00048 
     496    391.91565    5462.2822    5187.6455    4671.7362   -392.24519    2524.7976    5797.7167    45683.333    1.0464394    787.58615 
     512    381.45646   -1202.4576    5320.3519      4547.06   -413.15981    2532.1868    5942.6558    45660.042    1.0469732   -5754.7194 
     528    384.39047   -3876.6219    5287.4345    4582.0341   -425.45709    2528.1651    5925.8102    45669.391    1.0467589   -8462.9587 
     544    379.50589   -1396.8017    5356.7076    4523.8086   -391.62829    2508.2077    5982.3577    45644.939    1.0473196   -5927.2841 
     560    379.83213   -10635.107    5346.9476    4527.6975   -519.11811    2518.9959    6089.6828    45678.852    1.0465421   -15166.118 
     576    381.79878   -9117.6402    5322.7816    4551.1405   -506.57383    2525.1289    6046.1782    45693.814    1.0461994    -13670.62 
     592    377.50369    3008.4887    5382.3159    4499.9419   -301.85804    2526.1873    5900.3727    45658.659    1.0470049   -1496.7376 
     608    384.00352     -6645.56    5290.2645    4577.4216    -515.8346    2531.5727    6017.4551    45711.841    1.0457868   -11223.025 
     624    386.50183    -7363.901     5263.544    4607.2021   -519.49528    2528.6159    5996.9911    45725.228    1.0454806   -11969.798 
     640    384.36727    5271.9891    5295.7199    4581.7575   -337.95159    2517.0052    5859.2616    45675.636    1.0466157    686.55614 
     656    382.31672    905.94078    5312.3101    4557.3144   -404.65105    2517.6451    5941.9396    45698.041    1.0461026   -3652.7933 
     672    378.11918   -2419.5192    5324.0813    4507.2788   -472.44262    2526.2093    6012.6873    45707.592     1.045884   -6927.2599 
     688    378.59648    8258.7623    5294.8684    4512.9682   -324.87176    2518.7988    5843.9197    45676.659    1.0465923     3742.275 
     704    368.01518    5732.2679    5395.9433    4386.8365   -375.06475    2527.8727    5986.0066    45700.123     1.046055    1344.2647 
     720    376.91968    189.43496     5255.007    4492.9803   -404.80518    2536.5064    5865.0374    45703.939    1.0459676    -4304.365 
     736    379.24152    1636.0479    5220.1004    4520.6573    -392.9752    2538.7688    5815.4662    45692.815    1.0462223   -2886.5349 
     752     374.9289    2333.5344    5264.0406    4469.2497     -391.446    2536.5393    5860.6059    45703.103    1.0459867   -2136.6124 
     768    371.50678   -112.95448    5307.7141    4428.4572   -417.25233    2541.7877    5923.4489    45689.272    1.0463034   -4543.6414 
     784    376.91014   -1643.6419    5263.2025    4492.8666   -456.07482    2538.5041      5921.74    45685.439    1.0463912   -6139.1478 
     800    377.11111    417.29157    5301.4232    4495.2623   -411.28944    2528.6056    5926.7492    45691.608    1.0462499   -4080.0041 
     816    387.95789    18.898483    5221.6979    4624.5586   -439.09764    2522.6496    5880.8636    45666.812     1.046818   -4610.2642 
     832    380.28226   -4142.9395    5360.6075    4533.0631   -449.79907    2516.1495    6037.0459    45655.807    1.0470703   -8681.6094 
     848    388.79579   -1296.5581    5287.0261    4634.5467   -433.44696    2515.9861    5947.4625    45648.686    1.0472337   -5937.5609 
     864    379.58057    4555.7135    5433.2749    4524.6989    -340.6936    2512.1879    6004.9711    45616.732    1.0479672    21.537643 
     880    383.76129   -1053.6802    5369.4922    4574.5341   -445.90908    2516.2316    6042.2334    45634.156    1.0475671   -5636.0454 
     896     391.1116    130.86863    5272.6653    4662.1517   -442.82391    2518.7361    5939.9591    45640.888    1.0474126   -4538.5753 
     912    381.52857    7545.5702    5374.5482    4547.9195    -284.5563    2509.8445    5892.9937    45614.311    1.0480228    2987.8831 
     928    386.97292    230.67756    5273.5642    4612.8176   -396.56443    2511.8296    5902.3746    45639.761    1.0474384   -4389.4692 
     944    381.12671   -1433.6501    5320.3993    4543.1292   -424.37941    2511.6514    5976.1396    45643.654    1.0473491   -5983.6096 
     960    378.41076    4575.5876    5334.0396    4510.7544   -324.06146    2512.6349    5888.9496    45632.736    1.0475997    56.970655 
     976    382.71476   -776.45981     5258.536    4562.0592   -406.66818    2516.3462    5891.9956    45668.144    1.0467875   -5342.9278 
     992    377.59395   -3727.8986    5310.9511    4501.0178   -425.53865    2522.7215     5955.932    45684.839    1.0464049   -8231.6196 
    1008    380.46531    769.32928    5276.0214    4535.2452   -388.67731     2514.827    5892.3617    45707.859    1.0458779   -3766.3543 
    1024    382.51299   -1126.0569    5243.8029    4559.6541   -418.59803    2519.1985    5884.9348    45767.603    1.0445126    -5680.199 
    1040    382.13573    -4775.644    5257.3993     4555.157   -477.79891     2528.458    5947.3971    45804.677    1.0436672   -9321.6121 
    1056    378.29855   -3078.7241     5304.063    4509.4169   -436.43576    2529.2426    5952.0761    45839.374    1.0428772   -7575.6379 
    1072    374.85943    295.13047    5351.6079    4468.4217   -383.53718    2526.0447    5951.0272     45880.51    1.0419422   -4156.9065 
    1088    374.81673    935.59369    5353.7068    4467.9127   -378.01195    2529.5086    5942.5041    45898.971    1.0415231   -3514.1457 
    1104    373.81529   -1301.3117    5384.4446    4455.9753   -425.29944    2536.5049    6013.2541    45937.879     1.040641   -5735.4035 
    1120    380.43808    3267.1521    5325.2551    4534.9206   -383.84679    2523.2593    5927.2121    45967.823    1.0399631   -1242.5578 
    1136    388.84105    6326.2231    5246.1423    4635.0862   -365.87376    2527.3821    5825.4757    45980.344    1.0396799    1718.1596 
    1152    378.73871    115.78676    5437.0285    4514.6637   -419.33318    2525.5215    6070.3481    46023.259    1.0387104    -4368.371 
    1168    382.38255    1999.1582    5452.1554    4558.0992   -357.43906    2521.8096    6026.6424    46044.341    1.0382349   -2526.0688 
    1184    387.39064    5798.9261    5436.5712    4617.7969   -281.72421    2525.5132    5931.9006    46048.897    1.0381321    1214.8856 
    1200    385.51943   -1048.9258    5481.6331    4595.4916   -379.47824    2526.4316    6074.1309    46093.619    1.0371249   -5606.3979 
    1216    394.21815   -688.34989    5367.2735    4699.1826   -399.16657    2518.6173    5986.7412    46109.277    1.0367727   -5347.0726 
    1232    395.29404    3849.1428    5321.2416    4712.0075   -323.75353    2520.5314    5864.3751    46104.639     1.036877   -822.76425 
    1248    382.51101   -2129.1737    5440.6936    4559.6305   -421.34166    2529.6848    6071.9662    46137.832     1.036131   -6646.7482 
    1264    386.03158   -4121.0915    5345.4849    4601.5965   -425.02592    2538.4687    5970.6453    46153.429    1.0357809   -8678.7041 
    1280    385.61607    1467.6284    5309.9196    4596.6436   -361.34139    2526.2119    5885.2877    46156.149    1.0357199   -3084.8104 
    1296     384.0197   -452.34263    5316.9569    4577.6145   -369.88995    2526.5891    5901.9066    46187.198    1.0350236   -4982.8877 
    1312     380.7268   -1826.2137    5331.8985    4538.3622   -403.53584    2528.8461    5947.8004    46199.293    1.0347526   -6316.7342 
    1328    382.82082    1385.2796    5279.6415    4563.3234   -386.22289    2521.0989    5885.8486    46206.153     1.034599   -3129.2686 
    1344    374.99758    1819.9196    5385.5455    4470.0685    -356.0945    2513.5309    5970.0884    46218.925    1.0343131   -2601.1484 
    1360    378.75945   -322.87582    5322.5125    4514.9109   -376.22785    2513.2374    5927.2603    46218.471    1.0343233   -4788.3384 
    1376    385.07846   -409.43423    5235.9013    4590.2351   -387.55161      2522.87    5841.3792    46233.514    1.0339867    -4947.919 
    1392    382.35464    1477.0878    5273.5034    4557.7665   -384.82923    2523.4974    5874.7642    46247.044    1.0336842    -3027.976 
    1408    377.65739    1276.6927     5335.692     4501.774   -363.44571    2519.2015    5920.4079    46223.786    1.0342043    -3175.265 
    1424       382.46   -2222.6088    5264.2282    4559.0224   -397.37252     2523.411    5878.9834    46210.356    1.0345049   -6732.4916 
    1440    377.81716   -1028.4969    5309.7955    4503.6785   -373.51302    2520.7264    5903.5676    46189.105    1.0349809   -5485.6822 
    1456    378.77887    2524.6986    5302.6909    4515.1424   -330.10599    2520.1331    5854.2739    46129.608    1.0363158   -1949.5956 
    1472    379.73156   -2513.3448    5290.9153    4526.4987    -426.2673    2525.3066    5934.0468     46099.41    1.0369946    -7001.831 
    1488    378.81029   -1906.2605    5296.1947    4515.5169   -432.55085    2520.3551    5950.0649    46060.043    1.0378809    -6387.684 
    1504    372.42695    2271.4371    5399.1631    4439.4259   -354.02252    2522.0786    5970.6375    46002.123    1.0391877   -2140.0173 
    1520    375.57285   -1962.7256    5364.0854    4476.9258   -441.76907    2526.7721    6018.7804    45970.515    1.0399022   -6414.5024 
    1536    381.00917   -2402.9025    5316.9672    4541.7281   -436.95087    2527.9328    5966.4706    45917.634    1.0410998   -6924.3187 
    1552    379.54105    3209.2562    5363.0359    4524.2277   -359.30314    2514.7104    5949.4285     45840.49    1.0428519   -1302.3175 
    1568    378.05492    661.90366    5406.3062    4506.5127   -373.67201    2507.4717    6013.6743    45794.223    1.0439055   -3836.5449 
    1584    382.19514   -2032.9933    5369.4667    4555.8652   -428.76868    2519.7586    6019.6216    45745.839    1.0450096    -6585.516 
    1600    386.82699    2101.9251    5333.6223     4611.078   -387.27654     2509.845     5952.037    45683.502    1.0464355   -2512.0573 
    1616    384.68122    3595.2191    5362.3026    4585.4999    -338.8869    2507.8119    5934.7043    45651.166    1.0471767   -996.41911 
    1632    392.08899   -1000.2471    5254.3793    4673.8024   -424.74184    2511.7173    5906.9688    45647.263    1.0472663   -5680.7062 
    1648     385.5271    1030.0533     5315.298     4595.583   -407.76677    2514.0887    5949.5673     45632.88    1.0475964   -3573.5256 
    1664    377.74382     2591.335    5367.8071    4502.8044   -382.36353    2513.6485     5977.202    45627.457    1.0477209   -1919.8399 
    1680    384.67492   -265.68489    5210.2137    4585.4248    -413.1479    2521.3059    5842.8767    45629.766    1.0476679   -4859.4014 
    1696    374.93694   -363.69281    5290.1845    4469.3456   -387.17198    2527.0048     5890.002    45635.301    1.0475408   -4840.5771 
    1712    368.65894    1108.9346     5349.881    4394.5102   -401.06793    2524.7938      5965.94    45663.644    1.0468906   -3290.2558 
    1728    374.41649    1049.5444    5262.6873    4463.1417   -387.81124    2519.5943    5870.5936    45694.803    1.0461767    -3415.304 
    1744    379.80525   -184.36932    5209.4572    4527.3771   -403.74273    2517.1444    5835.0327    45735.416    1.0452477   -4709.4559 
    1760    375.77899    592.94904    5275.5608    4479.3831   -386.30342     2514.846    5885.7081    45790.631    1.0439874   -3878.7692 
    1776    379.67015    263.69212    5244.5891    4525.7666   -398.10738    2511.5988    5869.0857    45841.878    1.0428203   -4249.2796 
    1792     373.8964   -2109.5455     5348.271    4456.9421   -427.23824    2521.4594      5992.56    45881.167    1.0419273   -6550.0814 
    1808    380.26019   -1652.2772    5299.9984    4532.8001   -389.72573    2524.7326    5903.0228    45908.451    1.0413081   -6165.7079 
    1824    375.88833    1241.1123    5366.8653    4480.6864   -375.22897    2519.9112    5961.1698     45927.99    1.0408651   -3218.5294 
    1840     379.0702    -1028.202    5346.2214    4518.6152   -414.33826    2524.7912    5975.3537     45949.83    1.0403703   -5523.4566 
    1856    376.70661   -1981.6562    5408.5167    4490.4405   -418.80516      2536.04    6031.3377    45953.409    1.0402893   -6448.5339 
    1872    381.34587    139.79944    5343.4076    4545.7416   -365.33265    2534.4674     5914.772    45950.365    1.0403582   -4382.3888 
    1888    384.44468    -230.3982    5309.1599    4582.6804   -374.61011    2518.6817    5904.9966    45963.567    1.0400594   -4788.0242 
    1904    378.17319   -2288.6133    5404.4667    4507.9225   -432.24626     2525.552    6049.7823    45985.001    1.0395746   -6769.8005 
    1920    378.39324    122.31721    5395.0508    4510.5456   -398.66458    2519.9291    6014.7755    45995.887    1.0393286   -4360.4164 
    1936    382.61197    1357.1985    5325.7153    4560.8339    -341.6038     2517.574    5890.5195    46008.279    1.0390487   -3174.2926 
    1952    385.54533   -622.29121    5298.4092    4595.8003   -407.33136    2528.6362      5916.56    46027.263    1.0386201   -5186.6403 
    1968    380.13794    131.18533    5355.2246    4531.3428   -403.20053    2532.8276    5965.1754    46043.055    1.0382639   -4367.6038 
    1984    382.01947    1347.2097    5312.2953    4553.7712   -391.76734    2530.0731    5913.3213    46053.659    1.0380248   -3172.8058 
    2000    375.47436    307.35582     5386.358    4475.7517   -375.24574    2528.4604     5973.111    46058.266     1.037921   -4134.7741 
    2016    388.08114   -1185.9317    5220.2173    4626.0279   -422.55297    2520.3422    5861.6576    46065.568    1.0377564   -5776.4811 
    2032    375.77588    514.68482    5375.5736     4479.346   -404.02512    2513.4898    6004.6812    46057.929    1.0379286   -3931.0449 
    2048    385.83242    442.27732    5233.1848    4599.2225   -402.84482    2515.5815    5860.2046    46043.639    1.0382507   -4123.8459 
    2064    379.05826   -1134.3104    5306.4596    4518.4728   -417.11941    2515.8964    5947.9004    46017.465    1.0388412   -5622.8166 
    2080    375.36183     368.9566    5332.7949    4474.4103   -377.09607    2517.6771     5930.944    45979.322     1.039703   -4079.4666 
    2096    374.05346    796.94559    5310.0047    4458.8143   -359.00914    2527.0026    5880.8307     45946.57    1.0404441   -3639.1321 
    2112    375.67123   -1444.1368    5256.5989    4478.0985   -405.62336    2528.3533     5874.016    45913.796    1.0411868   -5902.5806 
    2128    378.05348   -679.41666    5197.2854    4506.4955   -395.14826     2532.238    5801.5156    45869.546    1.0421913   -5170.4611 
    2144    377.32186     819.7847    5183.7414    4497.7745    -387.7143    2535.5038    5776.9957     45822.33    1.0432651   -3667.1873 
    2160    374.40212    1285.5252    5208.3567    4462.9704   -382.22018    2528.8121    5801.7075    45772.131    1.0444093   -3171.6091 
    2176    374.13958    279.16276     5209.154    4459.8409   -382.53595    2526.9325    5806.1189    45730.729    1.0453549   -4178.8786 
    2192    375.18416    1285.1407    5225.4387    4472.2926   -373.72802    2527.6495    5812.7313    45689.796    1.0462914   -3189.3524 
    2208     375.5702   -353.83208    5291.3673    4476.8942   -392.59057    2526.9273    5897.1048    45657.082    1.0470411   -4836.1383 
    2224     377.5024   -16.598209    5313.5252    4499.9265   -404.09601    2527.8063    5929.5166    45621.102    1.0478668   -4525.5179 
    2240    376.78554    1406.7426    5357.3322    4491.3813   -374.09375    2535.8867    5935.0562    45587.099    1.0486484   -3096.9717 
    2256    376.57671    2091.0349    5395.6182     4488.892   -372.47046    2537.1439    5971.0502    45564.106    1.0491776   -2412.4547 
    2272    384.52662    481.10441    5300.6584     4583.657   -402.55926    2523.7027    5919.0981    45554.837    1.0493911    -4118.394 
    2288    384.61042   -1377.7758    5313.7421     4584.656   -419.29257    2518.1148     5954.241    45557.085    1.0493393   -5978.0495 
    2304    381.91519   -1339.0407    5346.3724    4552.5281    -396.6241      2524.09    5959.0376     45552.29    1.0494498   -5907.5581 
    2320    385.22186   -479.05329    5277.4592    4591.9445    -388.6584    2517.1773    5889.3208    45545.222    1.0496126   -5087.8405 
    2336    384.35108    -1926.064    5271.8441    4581.5646   -462.56389    2520.9248    5953.2599    45557.854    1.0493216   -6523.1583 
    2352    384.06102    446.05279    5243.6227     4578.107   -451.86769    2521.7919    5912.7239    45553.156    1.0494298   -4148.0459 
    2368    380.41017    1304.0953    5236.1445    4534.5879   -445.88095    2524.7617    5896.5371    45536.305    1.0498182   -3248.0162 
    2384    379.33807   -1074.1814    5210.7165    4521.8081   -453.35885    2530.3216    5873.9435    45534.013     1.049871   -5613.6922 
    2400    375.27157     96.49269    5253.5907    4473.3345   -426.95717    2520.6773    5901.0712    45537.657     1.049787   -4393.9953 
    2416    372.01459    163.53727    5294.8868    4434.5104   -414.51783    2519.8616    5930.2983     45552.69    1.0494405   -4286.5087 
    2432    378.59303   -190.63519    5212.2715    4512.9271    -393.9096    2514.3612    5832.3887     45576.95    1.0488819    -4716.962 
    2448     375.4091    366.08307     5267.274    4474.9738   -393.62872    2516.6991    5885.4612    45610.513    1.0481101   -4118.8751 
    2464     376.0217    1756.2701    5291.7625    4482.2762   -405.99498    2516.0962    5922.3848    45655.502    1.0470773     -2731.58 
    2480    378.07111    165.82664    5284.8702    4506.7057   -403.13115    2522.9946    5904.3316    45713.643    1.0457456   -4340.7444 
    2496    381.03541    538.40544    5251.3295     4542.041   -359.66121    2529.3637    5820.6229    45764.633    1.0445804   -3998.4392 
    2512    377.40253    626.10608    5324.0756     4498.736   -385.76961    2530.2997    5918.1062    45829.913    1.0430925   -3861.0826 
    2528    380.47203   -233.57477    5301.6124    4535.3253   -423.77419    2532.3022    5932.2248    45915.241    1.0411541    -4748.852 
    2544    389.00494    814.39043    5192.6151    4637.0398   -390.78408    2533.9532    5788.2627    45984.712    1.0395811   -3795.1773 
    2560    380.03996    479.86636    5324.2553    4530.1749   -381.11876    2527.9518    5915.1059     46057.12    1.0379468   -4016.3898 
    2576    379.10356   -1159.5203    5353.7236    4519.0127   -405.73813    2534.3893    5963.7622    46145.146    1.0359668    -5636.142 
    2592    378.63172    488.38877    5373.5812    4513.3883   -379.88123    2531.0536    5961.7593    46210.697    1.0344973   -3976.3189 
    2608    379.86591    384.78425    5377.4043    4528.1001   -382.19496     2533.771    5964.7715     46266.16    1.0332571   -4089.1069 
    2624     380.0554   -796.85121    5383.3344    4530.3589   -412.35954    2536.4035    5998.8269    46315.442    1.0321577   -5268.2113 
    2640     377.7402    918.49581    5404.4203    4502.7612   -366.38271    2531.3097    5979.7571     46334.83    1.0317258   -3523.7664 
    2656    377.74942    555.97654    5402.9155     4502.871   -361.74615    2528.5703     5976.211    46344.335    1.0315142   -3885.4829 
    2672    377.23685    -516.8487    5405.1052    4496.7611   -357.68589    2537.9304    5964.5764    46341.305    1.0315816   -4952.5715 
    2688    380.34479    1072.4038    5355.8465    4533.8086   -335.67196    2536.7689    5893.8295    46314.182    1.0321858   -3402.4828 
    2704    383.08503   -198.30457    5326.7384    4566.4729    -395.5001     2541.362    5918.9501    46297.331    1.0325615   -4707.0715 
    2720    380.97584   -1792.4748    5358.3093    4541.3309   -405.37892    2555.6301    5946.5112      46268.2    1.0332116   -6279.2405 
    2736     379.3015    900.93969    5372.2379    4521.3723   -357.94455    2552.5943     5916.249    46207.721    1.0345639    -3571.954 
    2752    378.88045   -617.64698    5374.1167    4516.3532    -376.3915    2542.2284    5947.2506    46167.485    1.0354655   -5089.4692 
    2768    378.97287   -1948.8228    5384.0837    4517.4549   -398.83246    2537.3331    5985.0397    46119.095     1.036552    -6426.429 
    2784    380.54628    -304.8433    5373.2212    4536.2104   -366.13969    2533.6993     5945.353    46054.359     1.038009   -4807.3596 
    2800    382.50486   -1986.8609    5337.8543    4559.5572   -421.73204    2530.0549    5969.0948    46020.304    1.0387772   -6515.8997 
    2816    379.74575   -1554.2888    5378.3775    4526.6679   -393.54157    2526.8709    5985.8807    45979.251    1.0397046    -6054.673 
    2832    382.74641   -361.30328    5332.0495    4562.4364   -387.05704    2517.3684    5942.6359    45934.169     1.040725   -4901.7001 
    2848    377.39343   -215.50656    5361.8398    4498.6276   -394.13034    2517.2757    5979.4437    45908.308    1.0413113   -4694.9247 
    2864    383.16413    591.63535    5269.2398    4567.4158   -403.36659    2518.9456    5894.9575    45889.137    1.0417463   -3958.1773 
    2880     375.9859   -146.26438    5329.5742    4481.8495   -400.32816    2512.7904    5959.0877    45879.696    1.0419607   -4611.7592 
    2896    375.28325   -843.37025    5280.2655    4473.4737   -375.19257    2515.2558    5880.8753      45875.6    1.0420537   -5300.9178 
    2912    370.89391    1405.6705    5305.1463    4421.1516   -333.37021     2517.079    5862.6888    45865.893    1.0422743   -3000.6736 
    2928    372.78598    412.72229    5274.8704    4443.7056   -366.99422    2515.8576    5867.4937    45886.982    1.0417952   -4014.0648 
    2944    372.02483   -1102.7175    5275.2621    4434.6324   -403.61962    2521.8235    5898.4019    45913.307    1.0411979   -5517.9331 
    2960    376.26417    3194.5543    5236.7692    4485.1665   -338.49654    2533.3293    5782.4731     45909.37    1.0412872    -1271.357 
    2976      376.019     903.9887    5286.8658    4482.2441   -405.78529    2529.1341    5904.6163    45936.535    1.0406714   -3556.3734 
    2992    378.42097   -2160.3612    5299.7131    4510.8762   -417.63112    2520.1821    5938.8721    45962.078    1.0400931    -6646.721 
    3008     377.6692    42.846371    5372.8387    4501.9148   -352.14855    2525.1611    5940.8586    45954.456    1.0402656   -4435.3434 
    3024    383.04835    315.26159    5365.5665    4566.0357   -374.35659    2529.4086    5950.7565    45974.998    1.0398008   -4224.6818 
    3040    388.15286   -494.40911    5316.9431    4626.8827   -410.90651    2531.1301     5936.757    46005.322    1.0391154   -5091.8194 
    3056    389.18094    235.89761    5301.2802    4639.1377   -382.07407    2524.0744    5899.5923    46015.549    1.0388845   -4372.6651 
    3072    378.27976   -1072.6234    5438.0414    4509.1928   -380.87518    2517.6623    6041.0994    46033.824    1.0384721   -5550.3195 
    3088    380.39256   -1280.9307     5384.871     4534.378   -356.89878    2512.3084    5968.6211    46041.197    1.0383058   -5782.9149 
    3104    377.67949   -1934.7703    5397.4875    4502.0375   -404.21118    2515.2388    6026.1817    46058.373    1.0379185   -6402.9781 
    3120    378.71815   -2228.7738    5370.9878    4514.4185   -411.93063    2517.8627    6005.0456    46083.388    1.0373552   -6706.8376 
    3136    383.86451    1375.4721    5284.6894    4575.7645   -358.08794    2520.2212    5862.9357    46069.956    1.0376576   -3164.7669 
    3152    372.99449   -69.765116    5387.4251    4446.1911   -377.95533    2521.6803    5982.9039    46071.379    1.0376256   -4481.3006 
    3168    370.87208   -2548.3398     5401.773    4420.8914   -401.62886    2518.9193    6024.3676    46076.202    1.0375169   -6934.3135 
    3184    377.15364    96.639194    5312.2477    4495.7692   -340.65257    2519.5221     5872.765    46043.343    1.0382574    -4366.804 
    3200    377.65159   -1889.2642    5293.4893    4501.7049   -392.30495    2516.4643    5908.6239    46026.285    1.0386422   -6360.2568 
    3216    377.07575   -2885.9001    5287.3262    4494.8408    -401.5866     2514.816    5912.8417    46007.866     1.039058   -7351.8627 
    3232    375.69535      1230.33    5312.1371     4478.386   -364.63903    2519.5801    5895.4137    45958.197    1.0401809   -3224.0924 
    3248    374.60946   -241.07004    5328.8441     4465.442   -382.04915     2508.369    5942.0703    45925.459    1.0409224   -4685.7838 
    3264    380.30273   -2276.0641    5259.3291    4533.3072   -406.42435    2515.3614    5889.2245    45885.493    1.0418291   -6792.2582 
    3280    377.82901     123.2546    5322.0578    4503.8198   -357.92022    2518.6444     5899.742    45823.636    1.0432354   -4369.6201 
    3296    381.23092   -647.13291    5300.3908    4544.3714   -344.46873    2511.7954    5872.7705    45791.118    1.0439763     -5183.68 
    3312    379.39325    -2375.784    5364.8016    4522.4659   -389.06213    2515.9483    5978.2006    45772.024    1.0444117   -6892.3466 
    3328    381.96807    927.28446    5372.6164    4553.1585   -360.40223    2519.9384    5952.2348    45744.236    1.0450462   -3622.6929 
    3344     383.6199     1622.943    5364.6802    4572.8487   -384.61447    2520.0669    5969.1943    45748.384    1.0449514   -2946.2965 
    3360    387.92182    1137.9354    5331.3476    4624.1287   -388.38531    2516.2126    5943.1751    45758.841    1.0447126   -3481.4878 
    3376    383.36944   -139.77577    5399.5485    4569.8632   -377.85202    2521.8708    5994.7337    45775.269    1.0443377   -4703.3503 
    3392    378.93515   -258.88214    5425.7003    4517.0052   -367.18762    2529.0077     6002.667    45800.415    1.0437643   -4767.1948 
    3408    386.14111    1917.3376    5316.2975    4602.9022   -350.11885    2527.8711    5878.1013    45817.258    1.0433806    -2675.018 
    3424    386.98472    770.03477    5276.5662    4612.9583   -435.11403    2539.9127    5911.9753    45849.826    1.0426395   -3829.0846 
    3440     374.1523    1174.6045    5375.6565    4459.9924   -426.90738    2539.7786    6003.8557    45872.615    1.0421215    -3269.799 
    3456     376.7458    2592.3658    5277.8461    4490.9076   -381.91659     2539.278    5861.3253    45882.039    1.0419075   -1881.9256 
    3472    382.14903    -176.1703     5192.249    4555.3156   -411.84586    2532.9215    5812.0812    45912.927    1.0412065   -4711.5781 
    3488    373.72223   -3506.4042    5301.8324     4454.866   -442.59183    2527.9423    5958.1256    45946.368    1.0404487   -7938.5731 
    3504    375.93054   -704.27143    5264.0255    4481.1896   -408.32263    2531.7839    5881.6208     45939.74    1.0405988   -5163.2731 
    3520    379.75502    173.88908    5229.1189    4526.7784   -384.99438    2532.9439    5822.9543    45929.565    1.0408294   -4331.4736 
    3536    376.37282    -1225.644    5309.2094    4486.4616   -435.40308    2533.7816    5952.3859    45922.338    1.0409932   -5691.5833 
    3552    380.66802    673.12872    5267.9429    4537.6615   -419.68008    2534.2468    5894.8404    45888.452    1.0417619   -3847.1118 
    3568    379.29882   -977.45848    5292.4805    4521.3403   -396.45905    2529.8335    5900.4736     45850.15    1.0426321    -5485.203 
    3584    377.12716   -2801.5771    5353.1393    4495.4536    -399.4198     2523.503    5971.2991    45811.503    1.0435117   -7287.2936 
    3600    381.38189   -470.48605    5319.4989     4546.171   -400.46722    2523.2276    5939.1224    45769.065    1.0444793   -5011.0164 
    3616    382.81944    -74.47845    5318.2465     4563.307   -426.44905    2529.4563    5957.4472     45740.83     1.045124   -4634.9368 
    3632    381.41707    1011.4281    5354.2922    4546.5904   -396.46823    2522.1417     5969.795    45709.275    1.0458455   -3535.4609 
    3648    384.16649    1667.2434    5337.5422    4579.3643   -401.82378    2523.1334    5957.5276    45693.476    1.0462071   -2914.0051 
    3664    384.25932    56.501912    5328.5783    4580.4708   -405.93988    2517.7439    5958.3129     45695.81    1.0461537   -4525.6195 
    3680    387.59786   -859.96477    5252.7126     4620.267   -410.71903    2518.3662    5885.1428    45684.747     1.046407   -5483.0159 
    3696    375.34929   -1511.3224     5352.124    4474.2608   -444.71341    2523.5555    6013.0065    45667.033    1.0468129    -5990.016 
    3712    374.06368    243.73149      5290.26    4458.9362     -435.992      2526.58     5939.957    45645.793       1.0473   -4221.6992 
    3728    376.09012    884.79485    5203.2363    4483.0918   -417.87139    2524.0567     5836.835    45617.384    1.0479522   -3607.6226 
    3744    375.53189    122.88703    5210.7739    4476.4376   -454.58986    2524.1303    5880.8314    45590.024    1.0485812   -4365.5544 
    3760    375.77865    463.45889    5210.9606    4479.3789   -453.13758    2524.5609      5877.58    45565.036    1.0491562   -4030.3949 
    3776    377.52093    1340.0955    5192.0427    4500.1474   -422.53674    2527.1234    5826.7152    45525.472     1.050068   -3178.5174 
    3792    375.45863   -874.63889    5247.4273    4475.5642   -420.24819    2523.3969    5882.7662    45497.408    1.0507157   -5371.3397 
    3808    375.49506    -524.9923     5295.791    4475.9986   -406.26088    2531.2395    5908.8627    45480.301    1.0511109   -5023.8211 
    3824    382.28283     2115.374    5250.8546    4556.9105   -403.53835    2525.7514    5867.9113    45459.389    1.0515944   -2466.8864 
    3840    385.47731    1202.5392    5246.8247    4594.9895   -442.88496    2524.3319     5905.073    45446.488     1.051893   -3419.3237 
    3856    374.88978   -650.58849    5420.2463    4468.7834   -422.63218    2516.1169    6066.4863    45442.237    1.0519914   -5145.9276 
    3872    381.05138     1577.233    5353.9404    4542.2312   -385.00517    2513.7717     5964.343    45434.098    1.0521798   -2992.8089 
    3888     388.9771     581.7877    5257.1607    4636.7079   -402.41968     2515.334    5884.0557    45446.656     1.051889   -4082.0202 
    3904    381.28882   -898.64253    5360.6409    4545.0616   -384.72291    2515.4357    5970.0983    45478.963    1.0511418   -5467.0209 
    3920    385.09017    530.18093    5301.2305    4590.3747   -378.81368    2516.9792    5902.8179    45527.081    1.0500309   -4078.8665 
    3936    379.98592    51.634869    5341.8208    4529.5308   -377.44999    2530.4754    5927.6467    45597.543    1.0484082   -4489.2932 
    3952    375.17557   -1989.7887    5395.9591    4472.1901    -407.7862    2526.9191     6015.905    45669.773    1.0467501    -6466.141 
    3968    378.29248   -1437.1326     5319.673    4509.3445   -376.45693    2525.1828    5910.1652    45732.719    1.0453094   -5944.4614 
    3984    379.98512   -539.21291    5249.1174    4529.5212   -399.92488    2521.0736    5867.8045    45802.038    1.0437274   -5059.8573 
    4000    370.13684   -1892.3193    5329.0526    4412.1272   -419.43316    2525.4842    5962.5904     45874.98    1.0420678   -6288.7981 
    4016    371.09096   -917.95972    5265.1591    4423.5005   -415.34639    2522.4123    5898.6931    45939.576    1.0406026   -5319.5737 
    4032    376.40269    140.53553    5165.6349    4486.8177   -435.55918    2525.1891    5816.3308    46005.184    1.0391185   -4317.7153 
    4048    372.62582    108.94666     5213.488    4441.7965   -421.85627    2526.2431    5849.0119      46058.5    1.0379157   -4299.4606 
    4064    373.23745   -810.92994    5209.3756    4449.0872   -391.69464    2534.1335    5807.0445    46098.692    1.0370108   -5222.7233 
    4080    375.73045   -831.47489    5228.3789    4478.8045   -403.35417    2529.5749    5842.2488    46133.466    1.0362291   -5269.3887 
    4096    377.97633    1292.7791    5297.6665    4505.5759   -354.16239    2529.3277    5862.6455    46156.212    1.0357184   -3169.4616 
    4112    376.95278    782.78811    5359.2012    4493.3749   -367.88827    2530.7716    5935.3403    46176.672    1.0352595   -3665.3972 
    4128    383.25274    223.39387     5314.376     4568.472   -379.24761    2530.5644    5901.5195    46181.486    1.0351516   -4298.6619 
    4144    390.03563    1473.5919    5242.7139    4649.3259   -396.58562    2525.5682     5851.455    46162.247     1.035583   -3130.4143 
    4160    385.05477   -890.35274    5302.7177    4589.9528   -423.60766    2526.7734    5937.2863    46139.928     1.036084   -5437.7632 
    4176    382.24315   -1935.5173    5328.2262    4556.4375   -410.03321    2522.7382    5954.0585    46102.644    1.0369219   -6453.3738 
    4192    381.37655   -397.74198    5324.8087    4546.1074   -396.32799    2518.3924    5943.8657    46047.417    1.0381655    -4910.762 
    4208    378.71566   -1691.0633    5327.5761     4514.389   -423.05203    2520.8221    5970.0221    45997.423    1.0392939   -6177.4667 
    4224    380.43367   -695.61402    5280.0557     4534.868   -425.76223    2526.0249     5919.446    45940.837     1.040574   -5207.9206 
    4240    379.46087     2406.028    5272.4122     4523.272    -360.8723    2515.9411    5858.2162    45875.738    1.0420506   -2101.1269 
    4256    372.69798   -595.99027    5331.4948    4442.6565   -399.66814    2518.5403    5952.0042    45835.824     1.042958   -5026.6719 
    4272    371.20932    -2973.786    5351.3879    4424.9114   -429.02849    2516.2088    6002.9413    45798.824    1.0438006   -7390.3354 
    4288    380.12726   -457.17483    5233.2149    4531.2155   -387.43419     2522.053    5838.2493    45761.705    1.0446473   -4983.4961 
    4304    379.91184    9.4891689    5245.3526    4528.6477   -382.03878    2515.5782    5851.6522    45750.814    1.0448959   -4515.3438 
    4320    378.58558   -880.63013    5274.5913    4512.8383   -387.74129    2519.6922    5883.4055    45756.197     1.044773   -5389.1366 
    4336    378.83356   -428.07352    5307.8846    4515.7943   -410.64362    2521.7487    5937.4358    45773.204    1.0443848   -4937.8569 
    4352     381.1103    1494.2003    5322.2428    4542.9337   -356.75347    2512.6861    5905.7924    45795.809    1.0438693    -3040.447 
    4368    382.34868   -285.59326    5349.8378    4557.6954   -390.78777    2510.1225    5971.1788    45819.293    1.0433343   -4832.6436 
    4384     383.3321   -1252.1466    5382.6263     4569.418   -376.66323    2513.8836    5986.1733    45846.247    1.0427209    -5808.212 
    4400    396.23529   -1197.0893    5251.5032    4723.2274   -414.62959    2519.3859    5886.1948    45893.516    1.0416469   -5901.6641 
    4416    382.48135   -960.04704    5426.5124     4559.277   -417.27102    2522.0681    6061.9318    45929.885    1.0408221   -5497.7229 
    4432    384.10733    132.46331    5397.0435    4578.6591   -375.36336    2515.5672    5997.6037    45955.099     1.040251   -4422.0025 
    4448    388.58582   -166.58862    5308.9169    4632.0438   -393.55032    2516.5659    5924.7422    46005.378    1.0391142   -4769.1216 
    4464    384.61884    1106.6146    5319.2416    4584.7564   -372.87273    2507.9084      5923.55    46048.985    1.0381301   -3444.6182 
    4480    377.26068    291.05917    5381.0039    4497.0452     -378.424    2519.4488    5978.8198    46084.219    1.0373364   -4169.6907 
    4496      378.368   -996.76133    5329.9788    4510.2447   -396.44998    2519.0183    5945.7878    46129.006    1.0363293   -5466.2605 
    4512    379.83077    2593.7382    5283.6482    4527.6813   -344.43507    2517.5367    5849.2641    46161.123    1.0356083   -1889.9183 
    4528    377.27381     1382.423    5319.4642    4497.2017   -414.25202    2525.3095    5946.3965     46196.54    1.0348143    -3067.636 
    4544    378.47618    -886.6898    5301.7745    4511.5342    -415.6114    2533.4325    5921.8509    46226.475    1.0341442   -5348.0401 
    4560    380.97455    2143.1139     5276.206    4541.3155   -342.52953    2521.9086    5836.8236    46239.482    1.0338533   -2346.4232 
    4576    380.65097    1632.1503    5285.3983    4537.4583   -337.43654    2531.0993    5831.0875     46268.33    1.0332087   -2850.7767 
    4592    379.61042   -2492.6078    5311.8995    4525.0547   -420.89846    2532.1632    5939.0883    46307.508    1.0323345   -6959.4979 
    4608    387.85828   -467.07788    5227.6224    4623.3713   -397.06498     2533.908    5831.1039    46326.964     1.031901   -5029.1041 
    4624    382.75178    1977.7645    5315.0867    4562.5005     -369.333    2532.5311    5892.1492    46341.162    1.0315848   -2522.8193 
    4640    381.43689   -1381.8415    5346.3652    4546.8267   -395.21352    2536.7435    5944.2817    46355.455    1.0312668   -5865.5813 
    4656    388.49185   -2498.9385    5278.4563    4630.9236   -418.33353    2530.7254    5905.4547    46343.404    1.0315349   -7066.7959 
    4672    386.75814    653.16587    5316.0369    4610.2573    -332.6444    2525.2424    5863.0596    46319.155     1.032075   -3896.6874 
    4688     385.8175   -113.70781    5339.8881    4599.0447   -325.59707      2513.78    5892.0261    46303.892    1.0324151   -4653.9914 
    4704    384.10362   -2532.8511    5375.9372    4578.6148   -382.54146    2513.9865    5985.3948    46277.118    1.0330125   -7055.5811 
    4720    388.73192    37.254318    5352.6919    4633.7853   -381.08551    2518.8717    5954.4981    46235.255    1.0339478   -4544.1171 
    4736    386.00086    2838.6951    5391.3668    4601.2303   -357.89131    2522.8433    5966.0046    46187.004    1.0350279    -1715.242 
    4752    389.36016    94.580483    5361.8133    4641.2741     -380.198    2527.6908    5954.1988    46144.913     1.035972   -4503.1789 
    4768    384.82016   -2159.6586    5419.9893    4587.1562   -446.62981    2530.1513    6075.7303    46102.706    1.0369205   -6707.9676 
    4784    384.98459    2458.6248    5397.7297    4589.1162   -394.07715    2525.1941    6005.8879    46026.324    1.0386413    -2099.179 
    4800    387.04049    2300.5708    5332.8134     4613.623   -373.12704    2527.3609     5918.138    45950.172    1.0403626   -2289.1664 
    4816    384.47034   -2424.9619    5326.9822    4582.9862   -411.65887    2520.7252    5957.2953     45899.63    1.0415082   -6989.2413 
    4832     383.3051    538.05775    5298.1583    4569.0963   -396.25918    2516.9312    5917.2558    45826.742    1.0431647   -4019.6259 
    4848    377.88104    2487.9262    5309.6655      4504.44   -369.60215    2519.6685    5899.6863     45756.61    1.0447636   -2012.1494 
    4864    380.84715   -2008.0137    5254.1454    4539.7968   -443.61507    2528.2835      5909.65    45719.617    1.0456089   -6547.0817 
    4880    376.83337   -1421.6588    5295.8053    4491.9515   -431.02699    2522.9716    5944.5836     45676.18    1.0466033   -5917.1603 
    4896    378.42615    1259.1412    5252.6976    4510.9379   -407.76191    2525.6551    5874.6197    45629.649    1.0476706   -3259.9654 
    4912    377.56103   -881.20167    5256.8247    4500.6254   -425.32668    2530.6685    5891.1098    45599.813     1.048356    -5392.927 
    4928     374.1247   -548.02074     5303.474    4459.6634   -418.60191    2520.0932    5942.2038    45571.116    1.0490162   -5021.4984 
    4944    381.72858    1799.0742    5217.6883    4550.3037   -386.59812    2516.7893    5827.6417    45551.448    1.0494692   -2767.2953 
    4960    381.08991    844.55232    5263.4607    4542.6906   -379.41659     2521.291    5861.6417    45543.925    1.0496425   -3714.9302 
    4976    377.97134   -1031.9802    5332.2783    4505.5164   -380.04951    2516.1882    5937.3366    45543.767    1.0496461   -5554.1667 
    4992    386.01622    15.072479    5292.2878    4601.4135   -419.89764    2516.9549    5937.9577    45554.745    1.0493932    -4602.253 
    5008    385.51635    715.92871    5357.4845    4595.4549   -400.57431    2520.3075    5980.5989    45557.709    1.0493249   -3895.1176 
    5024     382.2978    23.167587    5420.5538     4557.089   -382.32555    2521.2656    6024.4356    45570.436    1.0490319   -4548.1056 
    5040     386.5862    518.15118    5361.5977    4608.2078   -402.66335    2527.7684    5978.4689    45621.837    1.0478499   -4099.1918 
    5056     387.7007    1142.9485    5364.4366    4621.4929   -444.29642    2517.6214     6034.545    45680.708    1.0464995   -3481.7382 
    5072    387.89456    914.55722    5340.9998    4623.8038    -429.9089    2525.6167    5988.1359    45716.594    1.0456781   -3708.8099 
    5088    389.35857    701.47228    5282.0426    4641.2551   -398.21874    2532.1013    5890.9833    45760.782    1.0446683   -3934.8631 
    5104    379.03554    1652.6079    5395.4857    4518.2019   -412.12949    2538.9348    6010.6133    45825.502    1.0431929   -2854.4305 
    5120     382.3542    281.29964    5334.1406    4557.7612   -450.54091    2542.1171    5984.8866    45887.411    1.0417855   -4259.0664 
    5136    378.53373   -1468.7955    5354.1253    4512.2202    -400.9834    2541.1537    5955.0251    45937.742    1.0406441   -5958.8694 
    5152    376.30377     1829.557    5388.5552    4485.6385   -354.30509     2528.645      5955.22    45978.205    1.0397283   -2630.1376 
    5168    386.50597    2170.6927    5245.0691    4607.2514   -387.30632     2533.819    5839.6554     46029.03    1.0385802   -2404.8534 
    5184    377.84204   -2258.7314    5362.3562    4503.9751   -451.36737    2539.2181    6016.0481    46071.906    1.0376137   -6727.5492 
    5200    377.75847   -209.97177    5360.5669    4502.9789   -375.51963    2538.1341    5939.5811    46078.603    1.0374629   -4677.1519 
    5216    378.00823    1846.5391     5346.834    4505.9561   -360.05382    2532.0261    5916.9075    46093.191    1.0371345   -2622.1798 
    5232    378.68175   -2381.5406    5333.5925    4513.9847   -423.07951    2536.6246    5961.2318    46120.469    1.0365211    -6855.574 
    5248    376.03961   -3872.5615    5370.2566    4482.4897    -459.9925    2528.3676    6043.0169    46113.146    1.0366857   -8316.0842 
    5264    380.10607    176.20384    5293.9801    4530.9629   -383.54581    2524.8528    5894.6506    46083.249    1.0373583   -4318.2846 
    5280    380.28318    321.02694    5272.4178    4533.0741   -382.76357    2515.3577    5882.5973    46063.301    1.0378075   -4177.5029 
    5296    374.21345   -3400.6378    5333.8745    4460.7214   -427.10056    2522.1855    5980.8079    46043.584    1.0382519   -7829.2619 
    5312    369.07791   -657.52259    5384.8988    4399.5044   -379.17142    2532.3281    5972.9495    45996.572    1.0393131   -5029.8346 
    5328    382.12589    2478.5405    5216.3775    4555.0398   -330.31834    2529.5659     5757.808    45956.513     1.040219   -2052.2914 
    5344    376.82078   -1339.1391    5294.5834    4491.8014   -400.95698    2533.7277    5902.0518    45942.389    1.0405388   -5808.4424 
    5360    375.41944   -1272.3922    5337.7147     4475.097   -401.79088    2544.2916    5934.3321    45916.545    1.0411245    -5727.581 
    5376    378.18264    2485.6448    5328.8382    4508.0352   -357.38878    2533.9377    5891.9013    45878.594    1.0419857    -2006.048 
    5392    382.48962    197.01006    5316.9472    4559.3755   -426.18262    2534.0641    5949.0788    45859.245    1.0424254   -4347.7537 
    5408    388.56825   -1397.8545    5275.0746    4631.8343   -458.22357    2528.4649    5946.9556    45838.617    1.0428945   -6016.9225 
    5424     386.7606    2044.4435     5328.699    4610.2866   -404.27179    2522.8076    5951.5271    45802.109    1.0437257   -2556.8009 
    5440    385.86095    2144.6847    5350.3904    4599.5626   -338.61191      2526.26    5902.5539    45777.009     1.044298   -2448.3737 
    5456    384.17908   -1538.6535    5371.9808    4579.5143   -406.63612    2526.5328    5991.9745    45775.645    1.0443291   -6111.8282 
    5472    382.03459    449.47105    5393.0308    4553.9514   -378.78882    2525.0959    5985.7785    45771.093     1.044433   -4098.6285 
    5488    385.42947    2163.8564    5319.6321    4594.4192   -357.83112    2527.4654    5888.4772    45760.714    1.0446699   -2425.6997 
    5504    377.45282   -1044.2728    5360.4573    4499.3355   -408.62492    2531.6362    5975.9935    45756.898     1.044757   -5539.2207 
    5520    374.31896    -596.2451    5338.2586    4461.9791   -431.56472    2514.6802    5996.4225    45755.125    1.0447975   -5054.0457 
    5536    376.01448    2461.7273    5276.2739    4482.1902   -411.66845    2518.3559    5909.9905    45734.162    1.0452764    -2018.318 
    5552      375.231    1905.1183    5259.2224    4472.8509   -385.54614    2512.6317    5872.1011    45696.821    1.0461305   -2569.2455 
    5568    378.10511   -1997.5609    5212.4143     4507.111   -414.52314    2510.7054    5855.4444    45684.519    1.0464122   -6507.4104 
    5584    377.19562    671.35319    5231.5126    4496.2696    -364.1267    2512.9827    5822.5977    45668.647    1.0467759   -3829.2119 
    5600    369.15639    2610.4282    5346.6242    4400.4399   -325.26353    2505.6754    5907.1955    45649.482    1.0472154   -1796.0648 
    5616    376.72233   -2087.0417    5276.3828    4490.6279    -431.1001     2516.207    5931.8927    45667.347    1.0468057   -6582.0877 
    5632    386.95899    461.90846     5183.223    4612.6515   -410.60789    2516.4763    5817.8109    45684.057    1.0464228   -4153.5923 
    5648    377.64328    2569.6721    5341.5952    4501.6059   -401.37054    2513.2993    5971.4465    45699.667    1.0460654   -1933.1759 
    5664    375.09459   -3777.2318    5387.6617    4471.2248   -475.22832    2521.3189    6082.7029    45723.262    1.0455256   -8247.3824 
    5680    381.88128   -3316.7281    5317.6848    4552.1239   -404.20704    2513.6308      5948.66    45709.794    1.0458336   -7869.0993 
    5696    377.10082    1742.9786    5401.2854    4495.1396   -347.53069    2512.0161    5977.3187    45695.411    1.0461628   -2753.8201 
    5712    383.47931   -2838.8612    5319.3836    4571.1728   -456.46111    2523.2005    5993.2333    45719.076    1.0456213   -7409.3543 
    5728     381.2711   -4348.0204     5361.861    4544.8504   -481.23581    2530.3987    6053.4378     45713.75    1.0457431   -8892.7243 
    5744    383.98901     1022.717    5342.7452    4577.2486   -382.87105    2523.8878    5943.1665    45688.228    1.0463273   -3556.9408 
    5760    382.97758   -767.62361    5322.3014    4565.1921   -414.64956    2524.6057    5952.9671    45695.929     1.046151   -5334.4489 
    5776    379.63348   -2911.7632    5359.1634    4525.3296   -447.79697     2536.197    6011.0956    45688.531    1.0463204   -7439.4448 
    5792    376.40949    116.05876     5364.127    4486.8988   -387.89671    2523.5777    5968.9038    45676.731    1.0465907   -4374.3317 
    5808     380.3711    1184.3244    5234.6339    4534.1222   -388.14849    2515.1235    5849.3231    45682.638    1.0464553   -3352.7396 
    5824     376.2303    52.423382    5225.5151    4484.7628   -413.33715    2518.4463    5861.7647    45676.119    1.0466047   -4435.8896 
    5840    367.89954    -1545.384    5304.1848     4385.458   -448.69615      2518.98    5975.7718    45676.089    1.0466054   -5934.3165 
    5856     374.6056    1686.8474    5199.6717     4465.396   -402.09835    2516.7424    5827.4044     45665.76    1.0468421   -2783.0972 
    5872    374.76364    2903.1676    5217.4466    4467.2798     -352.249    2520.2077    5791.4152    45648.938    1.0472279   -1570.3106 
    5888    372.91031   -1571.8605    5280.8791    4445.1877   -435.15379    2520.8058    5936.9248    45666.441    1.0468265   -6021.5098 
    5904    371.03067    1271.6506    5328.8174    4422.7819     -377.902     2532.497    5914.4353    45668.073    1.0467891   -3155.4122 
    5920    378.83135     4268.243    5263.8574    4515.7679   -313.62062     2517.827    5800.4372    45656.237    1.0470604   -253.06774 
    5936    373.20161   -1341.2377     5392.176      4448.66   -391.08428    2521.8048    6003.1233    45684.073    1.0464225   -5792.6442 
    5952    386.62675   -1264.9237    5249.4557    4608.6911   -418.59462    2514.1853    5896.3957    45704.655    1.0459512   -5874.3834 
    5968    382.75098     2845.592    5294.5127    4562.4909   -324.33739    2514.7096    5845.5023    45708.608    1.0458608   -1717.2652 
    5984    379.59216   -1248.5108    5358.4365     4524.837   -424.81163    2516.6628    6007.7747    45738.654    1.0451737   -5770.7383 
    6000    377.42094   -1075.3166    5395.6565    4498.9555   -428.77543    2526.8686    6038.9451    45753.097    1.0448438   -5570.2582 
    6016    381.64906    1888.6637     5319.722    4549.3558    -382.4806     2515.681    5928.6763     45763.51    1.0446061   -2655.5991 
    6032    383.45918   -433.34489     5291.979    4570.9329   -423.88279    2510.5895    5946.9795    45784.448    1.0441283   -4997.0725 
    6048    374.16777   -3079.2344    5418.0226    4460.1769   -433.15993    2520.9339    6071.8205    45795.284    1.0438813   -7531.3268 
    6064     378.0399   -565.24707    5340.0832    4506.3337   -374.52752     2513.347    5943.6254    45798.715    1.0438031   -5063.0757 
    6080    375.17627    723.31765    5353.5908    4472.1985   -399.79113    2511.3938    5984.1223    45811.126    1.0435203   -3739.2309 
    6096    372.24063   -702.16239    5367.2896    4437.2048   -395.02447    2529.2848    5973.1194    45821.076    1.0432937   -5128.8314 
    6112    369.15704   -1275.7261    5359.6489    4400.4477   -395.55339    2538.9439    5955.9518    45838.659    1.0428935   -5664.0412 
    6128    371.83101   -350.17544    5270.5697     4432.322   -421.38017    2526.1842    5906.6509    45865.608    1.0422807     -4767.68 
    6144    371.03828    -1419.692    5239.8803    4422.8725   -417.05164    2525.0408    5872.3211    45883.472     1.041875   -5826.0624 
    6160     368.3834   -2004.4985    5252.4722    4391.2257   -416.73994    2521.1058    5887.9127    45887.598    1.0417813   -6378.9467 
    6176    369.31628    909.17039    5230.7583    4402.3459   -382.64246    2515.1721    5838.2924    45893.873    1.0416388   -3475.7559 
    6192    369.50162    1922.7623     5259.119    4404.5552   -376.53554    2521.0432    5853.9879    45896.971    1.0415685   -2464.0684 
    6208    371.46574   -340.05593    5296.5587     4427.968   -412.19037    2518.2825    5929.3927    45897.517    1.0415561   -4750.1528 
    6224    379.06522   -177.34492    5250.2533    4518.5557   -393.64785    2523.2821    5859.8411    45899.642    1.0415079   -4677.4556 
    6240    381.19311    2433.3912    5263.8675    4543.9207   -364.70851    2517.5015    5850.6125      45895.4    1.0416042   -2092.3992 
    6256    377.38071    93.644659    5339.4566    4498.4759   -372.40056    2527.9994    5923.1942    45902.778    1.0414367   -4386.1621 
    6272    382.23642   -395.07269    5287.3119    4556.3572    -417.1302    2534.2695    5909.5726    45901.568    1.0414642   -4932.6402 
    6288    382.98919    3784.2814    5296.4991    4565.3305   -346.84906    2529.8357    5852.4502    45884.218     1.041858   -763.94153 
    6304     381.5413    1808.6897    5321.7304    4548.0713    -375.7509    2525.5642    5910.7614     45887.55    1.0417824   -2722.0096 
    6320    386.95901   -961.27382    5270.5724    4612.6518   -463.31691    2535.0197    5937.7657    45885.311    1.0418332   -5556.5312 
    6336    380.30918    2583.2511    5354.6134     4533.384   -394.32396    2533.5888    5954.7783    45854.986    1.0425222   -1936.0241 
    6352    383.52858    1667.0469     5302.944    4571.7602   -405.15155    2527.1797    5919.8498    45841.875    1.0428203   -2891.7886 
    6368    383.02635   -921.44266    5328.7646    4565.7735     -421.369    2524.8334    5964.1448    45826.553     1.043169   -5475.8306 
    6384    386.28932    463.32202    5297.1924    4604.6689   -428.93676    2519.2944    5944.2745    45797.926    1.0438211   -4132.7354 
    6400    376.52638    1618.0551    5394.0005    4488.2921   -387.39767    2519.2173    5999.6022    45769.314    1.0444736   -2864.6438 
    6416     372.8831    304.69328    5435.2829    4444.8633   -375.11004    2518.1269    6032.0403    45732.381    1.0453171    -4138.216 
    6432    377.39885   -673.76887    5365.0716    4498.6921   -384.96544    2525.3965    5963.0789    45701.769    1.0460173   -5173.4953 
    6448    377.78969   -289.13179    5326.7864     4503.351   -405.78423    2523.1916    5948.0002    45683.624    1.0464327   -4795.3073 
    6464    376.47474   -251.04243    5300.1537    4487.6766   -410.13526    2523.9603    5925.5988    45653.259    1.0471287   -4744.5204 
    6480    378.78339    -1314.273    5234.1176    4515.1962   -426.14613    2528.7768    5870.8621    45621.015    1.0478688   -5838.5016 
    6496    373.72512   -1307.2105    5268.1428    4454.9004   -421.95226    2520.5483    5909.8553    45601.457    1.0483183   -5772.9371 
    6512    371.80877    1273.4789    5273.8611     4432.057   -421.73316    2515.8647    5920.1848    45575.603    1.0489129   -3171.8691 
    6528    378.38301    787.46513    5203.3994    4510.4236   -426.53546    2516.3171    5854.1555    45560.705    1.0492559   -3737.9638 
    6544    375.68391   -779.30693    5246.5554    4478.2497   -432.43531    2515.0281    5906.1382    45565.446    1.0491468   -5271.9874 
    6560    375.79501    1645.0703     5267.071     4479.574   -377.00555    2511.4891    5874.6497    45566.362    1.0491257   -2848.8484 
    6576    385.48156    1488.1988    5192.6267    4595.0402   -385.27323    2509.9988    5809.1215    45579.493    1.0488234   -3120.2278 
    6592    384.10111   -435.94867    5260.5917    4578.5849   -390.06175    2510.0946    5882.9366    45610.693     1.048106    -5024.731 
    6608    375.60097    1607.3539    5419.2857    4477.2609   -382.72556    2506.4383    6038.0129    45636.152    1.0475213   -2877.3755 
    6624    381.33004    2122.6772    5374.5702     4545.553   -373.56114    2509.1404    5981.3956    45677.871    1.0465645   -2426.2996 
    6640    383.52902   -155.94131    5366.6731    4571.7654   -400.31074    2511.5237    5997.6672    45743.945    1.0450528   -4724.5416 
    6656    378.67805    212.35157    5445.6097    4513.9406   -392.94379    2523.7111    6056.9718    45813.667    1.0434624   -4291.5992 
    6672     381.5729    1466.7475    5398.4716    4548.4479   -371.92427    2530.7133    5981.2555    45898.937    1.0415239    -3063.203 
    6688    376.93037   -780.33612    5459.4977    4493.1078   -401.78713    2531.9244     6070.853    46003.151    1.0391645   -5245.0343 
    6704    378.35244   -599.24762    5433.1555    4510.0592   -375.75983    2536.8105     6012.481    46092.944    1.0371401   -5072.0597 
    6720    380.24431   -1.7634646    5394.7758    4532.6108   -389.10307    2537.1172    5986.7257    46180.491    1.0351739   -4488.4191 
    6736    383.80868   -955.18636    5331.3828    4575.0991   -438.74397    2532.2735    5979.4504    46260.324    1.0333875   -5476.0842 
    6752    373.56021   -191.43701    5434.2948    4452.9346   -380.28475     2533.572    6022.3997     46308.15    1.0323202   -4587.0732 
    6768    378.66677    -499.7239    5358.5145    4513.8061    -399.0325    2527.3881    5970.6041    46351.507    1.0313546   -4951.2804 
    6784    382.63987   -827.38103    5280.0556    4561.1665   -383.60762    2527.4311    5876.3783    46393.246    1.0304267   -5321.5978 
    6800    379.27798   -491.76123    5323.7911     4521.092   -362.05408    2531.0906     5895.638    46413.298    1.0299815   -4944.5671 
    6816    374.14421   -82.387443    5400.3182     4459.896   -356.24809    2532.0507     5965.329    46420.939     1.029812   -4474.1986 
    6832    378.42706   -474.22551    5345.2159    4510.9487   -391.81021    2534.0689    5943.4291    46425.063    1.0297205   -4915.9154 
    6848    384.97616   -251.26318    5302.3046    4589.0157   -411.26695    2531.1616    5921.5752    46411.136    1.0300295   -4771.1774 
    6864     386.2787    181.48179    5370.1345    4604.5422   -363.05728    2527.1123    5945.7555    46383.887    1.0306346   -4356.3895 
    6880    384.40363    -448.1803    5431.3403     4582.191   -355.45867    2518.0712    6009.6911    46344.096    1.0315195   -4967.9012 
    6896    379.52552   -939.67153    5533.5061    4524.0427   -345.33574     2522.365    6094.6603    46295.875    1.0325939   -5406.6849 
    6912    384.76312   -1596.5064    5488.8963    4586.4762   -362.88169    2518.4155    6073.4708    46255.555     1.033494   -6129.1138 
    6928    388.85847   -441.34645    5421.8734    4635.2939   -351.89714     2510.132    6005.4416    46202.292    1.0346855   -5027.4791 
    6944    387.88114    760.40904     5413.963    4623.6438   -343.27804    2516.2476    5982.5614    46145.057    1.0359688   -3819.8711 
    6960    385.55958     -812.113    5413.7129    4595.9702   -396.64081    2526.4264    6025.4083    46117.895     1.036579   -5367.6605 
    6976    387.74984    531.73914    5332.6157    4622.0786    -400.5259    2522.5115     5951.998    46087.533    1.0372619   -4052.7054 
    6992    386.50471    728.14792    5306.2076    4607.2363   -398.87617    2527.8094    5918.2143    46054.783    1.0379995   -3844.8247 
    7008    378.67807   -2156.5585    5374.2637    4513.9408   -392.85987    2520.4679    5989.0997    46030.446    1.0385483   -6639.2983 
    7024    382.92326   -1584.6062    5286.6225    4564.5446   -386.84779    2519.5557    5895.1961     45996.87    1.0393064   -6120.9089 
    7040    379.25779    456.92438    5314.7994    4520.8512     -366.425    2520.6034    5900.8204    45964.502    1.0400382   -4039.1191 
    7056    375.48235   -604.93851    5351.5845    4475.8471   -369.97018    2513.8346    5949.5018    45938.726    1.0406218   -5058.7224 
    7072    373.32206   -551.28872    5368.4953    4450.0958   -364.53423    2517.7008    5957.6101    45908.973    1.0412962   -4982.3182 
    7088    374.35416     512.9304    5357.1679    4462.3986   -375.24497    2513.7291    5960.4604    45890.815    1.0417082   -3932.1072 
    7104    378.53881   -308.77086    5309.1381    4512.2808   -398.69372     2523.818    5925.0789    45877.021    1.0420214    -4804.848 
    7120    379.72579   -1080.3119    5302.6976    4526.4299   -414.10261    2525.0935    5933.3285    45847.357    1.0426956   -5593.4056 
    7136     381.8463   -403.84053    5274.1801    4551.7069   -398.38666    2523.1373     5890.608    45827.195    1.0431544   -4944.1334 
    7152    378.24101   -432.50933    5317.9869     4508.731   -430.42275    2530.0911    5959.3412    45817.846    1.0433673   -4930.8517 
    7168    373.40797   -334.78327    5383.8355    4451.1198   -423.99889    2543.1426    6004.4288    45796.347     1.043857   -4777.7319 
    7184     382.0288   -488.28284     5281.443    4553.8824   -428.09146    2539.3433    5910.8875    45784.308    1.0441315   -5035.0008 
    7200    381.92495    650.99773    5306.8869    4552.6444   -397.59415    2531.5821    5914.7763    45776.124    1.0443182   -3895.2968 
    7216    380.87453    1898.5224    5341.1997    4540.1231   -365.36167    2528.3683    5919.2519    45766.203    1.0445446   -2636.2512 
    7232    376.23556    142.84424    5428.2958    4484.8255   -366.82083    2528.6015    6006.6636    45776.733    1.0443043   -4335.6664 
    7248    388.23826    1152.5633    5298.8848    4627.9008   -397.78882    2516.9325    5920.0008    45791.404    1.0439697   -3467.3406 
    7264    384.95403    2664.4087    5354.3245    4588.7519    -360.9635    2527.8101    5927.3576    45808.735    1.0435748   -1914.6808 
    7280    379.78207    1902.9997    5423.2722    4527.1008   -392.63928    2534.9816    6020.5855    45838.656    1.0428936   -2611.6197 
    7296     383.9506    2428.4618    5359.6527    4576.7907   -388.64561    2536.3227    5952.0084    45870.511    1.0421693   -2132.5409 
    7312    382.74404    1666.0233    5361.7527    4562.4083   -402.33007    2534.5683    5969.3434    45919.985    1.0410465    -2875.748 
    7328    376.66932     460.4364    5421.8427    4489.9961   -385.88516    2523.9279    6024.8163    45978.982    1.0397107    -4003.515 
    7344    385.60111    646.23349    5270.0149    4596.4652   -380.42061    2522.8005    5868.2094    46040.941    1.0383115   -3917.4198 
    7360    377.87342   -125.59864    5323.1024    4504.3491   -388.19918    2535.9931    5914.9839    46105.177    1.0368649   -4591.5625 
    7376    374.83342   -314.18353    5333.9412    4468.1115   -392.54375    2538.0275    5929.0192    46149.248    1.0358747    -4739.988 
    7392    373.28099   -1753.0323     5314.899    4449.6062   -417.85044    2547.6405    5925.8004    46176.373    1.0352662   -6157.9177 
    7408    384.42276   -1600.1469    5144.1896    4582.4191   -422.42788    2551.4967     5756.414    46176.655    1.0352599   -6136.4826 
    7424    360.33254   -1509.0861    5460.4362    4295.2573   -407.10927    2547.3496    6060.7937    46156.829    1.0357046   -5762.9743 
    7440    374.52838   -2228.3739    5288.0577    4464.4755   -428.97972    2542.6854    5915.7586    46130.385    1.0362983   -6652.3851 
    7456    377.31884    -1013.858    5285.7083    4497.7385   -404.22516    2534.7873     5895.792    46088.644    1.0372369   -5474.8673 
    7472    382.32658   -269.00144     5296.915    4557.4321   -382.82139    2531.0398    5889.9367    46050.055     1.038106   -4793.0046 
    7488    385.26252    94.053067    5325.8372    4592.4292   -389.66565    2530.4351    5924.7599    46016.531    1.0388623   -4468.0117 
    7504    383.14269    211.35359    5385.6424    4567.1603   -363.72524    2534.1273    5954.5459    45986.337    1.0395444   -4328.5882 
    7520    380.23681   -118.16236    5454.8615    4532.5213   -351.97406    2529.6404    6016.7372    45962.722    1.0400785   -4625.9866 
    7536    389.52013    858.13025    5331.6341     4643.181   -342.81876    2530.4448      5883.37    45951.744     1.040327   -3760.8538 
    7552    384.17093    462.33274    5382.2762    4579.4171   -357.25627    2529.7401    5949.5539    45959.435    1.0401529   -4092.4574 
    7568    379.80528    738.48549    5431.0927    4527.3774   -358.57489    2528.4617    6000.5967    45967.559    1.0399691    -3763.749 
    7584    383.48732    598.60262    5359.3532    4571.2683   -378.38703    2527.7247    5950.5354    45980.066    1.0396862   -3946.0425 
    7600    387.22811    769.10473    5270.9485    4615.8595    -386.7763    2526.8979     5871.052     45991.46    1.0394286    -3818.735 
    7616    383.89241   -655.85468    5272.7119    4576.0971   -414.51273    2529.2647     5898.626    46000.179    1.0392316   -5203.3113 
    7632    375.29225   -1559.8051    5339.6095    4473.5809   -411.15431    2532.8402    5956.7217    46005.473     1.039112   -6004.8755 
    7648    374.64506   -178.24312     5321.906    4465.8663   -391.75065      2535.28    5917.7721    46002.546    1.0391781   -4615.9305 
    7664    374.36327    732.79318    5324.1921    4462.5073   -385.63969    2536.4918    5912.1571    46006.054    1.0390989   -3701.2182 
    7680    371.89037   -656.84819    5367.5644    4433.0297    -410.9314    2546.2924    5971.0821    46017.301    1.0388449   -5060.4936 
    7696    381.08016    657.45117     5269.854    4542.5744   -416.59966    2539.4423    5885.4286    46010.208    1.0390051   -3855.7085 
    7712    381.55521    698.00193    5291.8138    4548.2371   -408.06022    2536.8398     5902.366    45998.741    1.0392641   -3821.9103 
    7728    375.15523   -188.05615    5389.5133    4471.9477   -405.40487    2536.7575    5998.3018    45990.055    1.0394604   -4632.9934 
    7744     384.3569    118.29263    5305.3782     4581.634   -420.76881    2528.3603     5938.887    45975.064    1.0397993   -4437.1533 
    7760    383.38461    1281.2702    5343.1757     4570.044   -393.35332    2525.5482    5950.8011    45958.936    1.0401642   -3264.2466 
    7776    383.87497   -225.46244    5378.1286    4575.8893   -418.08318    2534.1131    6001.3892    45952.536    1.0403091   -4777.4271 
    7792    379.38127    700.38844    5474.8375    4522.3231   -414.92601    2535.3825    6093.9534    45931.524     1.040785   -3800.3481 
    7808     392.1634    388.01963    5372.3306    4674.6894   -386.55248      2526.86    5971.8922      45915.7    1.0411436   -4265.9592 
    7824    391.73447   -1159.2226    5461.9346    4669.5765   -410.31489    2533.8236    6077.1686    45903.278    1.0414254   -5809.3693 
    7840    388.32521   -1466.8175     5542.042    4628.9372   -403.59334    2535.7381    6149.1286    45884.669    1.0418478   -6078.3635 
    7856    392.86969    116.96929    5465.8584    4683.1087   -358.07935     2533.768    6030.5868     45873.75    1.0420957    -4549.655 
    7872    393.09427   -224.57673      5449.86    4685.7857   -416.71522    2535.7198    6071.1232    45874.112    1.0420875   -4893.8319 
    7888    388.51333    312.89833    5468.6182    4631.1797   -408.13415    2531.1679    6083.8028    45877.863    1.0420023   -4301.5661 
    7904    389.08135   -238.47091    5410.7687    4637.9506   -381.09143    2533.5054    5997.5648    45903.157    1.0414282   -4857.1354 
    7920    384.84845   -85.040387     5444.729    4587.4934   -389.24946    2529.3427     6045.479    45928.282    1.0408584   -4650.9583 
    7936    382.56495    147.87491    5423.0701    4560.2735   -361.90907    2532.2568    5991.9329    45956.981    1.0402085   -4388.1168 
    7952    382.40613   -530.97449    5389.9286    4558.3803   -422.39257    2532.9132    6019.3774    46004.658    1.0391304   -5060.3841 
    7968    383.83349    1702.3057    5345.3715    4575.3948   -374.99851    2538.5229    5922.1212    46038.707    1.0383619   -2840.6479 
    7984    375.36222    2561.5315    5416.8757     4474.415   -339.39436    2530.6256    5966.5241    46073.863    1.0375696   -1877.7684 
    8000    376.22796   -304.53886    5362.7572    4484.7348   -396.97638    2534.2729    5965.8822    46131.928    1.0362637   -4748.4771 
    8016    383.07006   -857.97709    5257.2602    4566.2945   -388.27619    2528.8567    5856.2052    46169.172    1.0354277    -5379.083 
    8032    376.92411   -1066.2378    5331.3525    4493.0331   -379.96792    2523.1001     5928.089    46188.544    1.0349934   -5512.9416 
    8048    377.85391   -1665.0093    5302.4228    4504.1166    -373.9403    2527.0934    5889.4179     46201.76    1.0346974   -6121.4073 
    8064    377.04025   -527.14568    5305.3096    4494.4176   -390.31557    2525.5336    5910.4311    46203.199    1.0346652   -4973.8088 
    8080    375.24221      438.301    5363.5108    4472.9844   -404.79914    2525.1739    5984.4454     46199.41      1.03475   -3987.5197 
    8096    380.10055   -430.19788    5323.1432    4530.8971   -408.15597    2521.6625    5949.9156      46184.2    1.0350908    -4914.797 
    8112    383.78053   -519.67898    5290.4151    4574.7635   -390.19204    2521.1703     5899.482    46148.569      1.03589   -5051.1923 
    8128    388.94264   -127.83076    5281.5107    4636.2972   -375.20732    2511.7563    5885.7533    46114.319    1.0366593   -4723.7069 
    8144    380.38465   -543.80325    5432.8703    4534.2836   -378.02729    2513.1219    6038.3676    46086.815     1.037278   -5041.2377 
    8160    389.83359    300.93212    5338.9937    4646.9175   -388.61788    2512.1559    5956.3415    46052.565    1.0380495   -4311.6487 
    8176    383.23989    331.42804    5461.5465    4568.3189   -352.91698    2507.6933    6048.5872    46026.138    1.0386455   -4205.7386 
    8192    381.63236   -224.94854     5482.357    4549.1567   -358.71608    2511.8412     6071.272    46006.142    1.0390969   -4745.0474 
    8208    385.46537   -20.542301    5414.1781    4594.8471   -369.78951    2509.4125     6016.314    45982.856    1.0396231   -4588.3517 
    8224    390.82346   -386.09414    5316.8698     4658.717   -400.43336    2516.6075    5940.3282    45964.027     1.040049   -5019.2947 
    8240    378.65783    362.59947     5391.158    4513.6995   -366.53687    2510.3834    5987.4738    45941.444    1.0405602   -4128.5846 
    8256    380.17277    298.52563    5292.8089    4531.7581    -393.6125    2518.5954    5907.0788    45919.199    1.0410643   -4212.8113 
    8272    384.17424   -668.33906    5221.1066    4579.4566   -428.96612    2514.6333    5875.0372    45900.912    1.0414791   -5228.9758 
    8288    383.21158    824.15696    5217.5919    4567.9814    -392.4003    2516.6832    5831.0997    45878.354    1.0419912   -3727.2885 
    8304    375.32196   -130.47132    5300.4644    4473.9351   -388.40096    2513.0174    5914.7608    45872.675    1.0421202   -4588.7628 
    8320    377.12841   -931.53017    5277.0167    4495.4685   -387.02154    2516.4887    5885.7805    45865.801    1.0422763   -5411.9511 
    8336     378.2595    1064.6858    5266.9995    4508.9514   -362.36448    2517.8344    5849.8023    45854.147    1.0425413   -3430.3152 
    8352    382.76914    394.03234    5232.0818    4562.7075   -370.80822    2518.1472    5823.4386    45880.141    1.0419506   -4151.9813 
    8368     373.5193   -116.72543    5371.4491    4452.4469    -382.2249    2514.3544     5977.543    45914.156    1.0411787   -4549.5954 
    8384    377.60523    84.152706    5347.8595    4501.1523   -368.41615    2532.7492    5921.7666    45951.399    1.0403348   -4393.5765 
    8400    378.03559   -78.914225    5387.2206    4506.2823   -383.46576    2526.2432    5983.3218    46011.681    1.0389718   -4555.8735 
    8416    385.32044    252.99388    5344.4367    4593.1196   -393.38728    2518.2097    5958.9753    46073.247    1.0375835     -4304.14 
    8432    384.39562   -515.57636    5371.0493    4582.0955   -378.39471    2518.6889    5970.0561    46129.555     1.036317   -5056.2233 
    8448    384.35712   -2218.9043    5371.0237    4581.6366   -377.56261    2526.1094    5961.9956     46198.73    1.0347652   -6752.2981 
    8464    377.47055   -436.85432    5474.7074    4499.5468   -383.85784    2525.1022    6072.4361    46256.599    1.0334707   -4883.4529 
    8480    385.49566   -120.48388    5369.8364    4595.2083   -372.24166    2520.3757    5961.0296    46313.622    1.0321983   -4656.0271 
    8496    385.07164   -2325.2097    5354.5289    4590.1539   -413.74717     2523.354    5982.2508    46372.377    1.0308904   -6850.0237 
    8512    379.27891    44.244602    5410.5419     4521.103   -349.29875    2533.6837    5964.1154    46404.336    1.0301805   -4409.4321 
    8528    377.63383    989.13162    5391.6429    4501.4932   -334.30394    2533.7858    5931.0117    46445.634    1.0292645   -3441.2849 
    8544    376.37615   -1364.5227    5324.7452    4486.5013   -367.47343    2538.6713    5892.6537    46487.551    1.0283364   -5776.2025 
    8560    373.23887    213.63764    5312.4009    4449.1041   -339.62453    2540.5389    5850.7764    46484.903     1.028395   -4161.5179 
    8576    376.21294    1580.7155    5237.9613    4484.5558   -329.14449     2541.073    5764.7038    46481.507    1.0284701   -2829.6246 
    8592    375.55541   -391.92372    5225.7022     4476.718     -385.873    2533.2719    5817.5053     46472.29    1.0286741   -4795.4289 
    8608    368.67452    866.38485    5331.1003    4394.6959    -358.5943    2525.6631    5902.5544    46417.782     1.029882   -3461.5159 
    8624    373.09686    -215.4187    5297.9216    4447.4114    -389.2281    2521.1218    5905.6603    46359.328    1.0311806   -4600.7562 
    8640    376.87249   -742.19049    5262.1787    4492.4179   -372.85279    2523.6454    5851.4438    46285.687    1.0328212    -5178.954 
    8656    373.75793   -1699.9696    5335.3602    4455.2915   -414.76879    2524.1723    5966.7235    46195.084    1.0348469   -6108.6967 
    8672    381.79733   -1155.9957    5265.2816    4551.1232   -408.78144    2521.5205    5892.7469     46096.02    1.0370709   -5669.2314 
    8688     382.8253    991.34457    5289.3761    4563.3769   -394.17271    2520.6952    5902.1552    45985.707    1.0395586   -3544.8985 
    8704    384.79422    1185.1501    5284.1237    4586.8469    -380.7882    2530.3954    5874.0287    45880.487    1.0419427   -3384.8802 
[...]
   11952    373.05508   -2073.3069    5370.8618    4446.9133   -369.06909    2509.6617     5969.906     46438.78    1.0294164   -6450.6513 
   11968    378.09187    674.86502    5325.8257    4506.9532   -345.20791    2511.4382    5898.9832    46386.247    1.0305822   -3766.6043 
   11984    383.33822   -1308.9232    5275.6542     4569.491    -396.8518    2508.3653    5904.0439    46343.159    1.0315404   -5816.2084 
   12000    380.74804   -1632.3266    5329.8582    4538.6154   -385.58535    2506.9028    5948.2084    46264.682    1.0332901   -6116.7504 
   12016    374.36456   -1310.7028    5447.5916    4462.5227   -346.12612    2514.6436    6017.0811    46170.284    1.0354028   -5728.9575 
   12032    381.37322   -1104.8905    5391.9184    4546.0677   -362.03052    2509.8096    5983.4048    46084.636     1.037327   -5614.2263 
   12048    385.70656    155.94551    5361.1363    4597.7222   -373.40528    2513.7698    5961.6726    45986.559    1.0395394    -4414.354 
   12064    389.96846   -295.12694    5329.7398    4648.5251   -386.17738    2515.4942    5941.8649    45893.778     1.041641    -4925.268 
   12080    387.39667    24.537902     5344.182    4617.8687   -363.19006    2512.1833    5935.5014    45812.935    1.0434791   -4583.1847 
   12096     385.3597    1306.2056    5337.9497    4593.5876   -358.98341    2515.4115    5922.8307    45739.597    1.0451522   -3284.6382 
   12112    381.90866    1220.9793    5342.4584    4552.4503   -370.37687    2514.9314    5939.1481    45683.375    1.0464384   -3334.3511 
   12128    384.18216    748.57684    5253.8042     4579.551   -391.34878    2515.3147    5870.4895     45644.31    1.0473341   -3837.7934 
   12144    386.73208    1754.0088    5174.7333    4609.9467    -371.1226    2518.2959    5767.0758    45614.826     1.048011   -2865.7864 
   12160      377.961    552.45313     5269.262    4505.3931   -364.85533    2513.3935    5862.0018    45606.382     1.048205   -3963.4012 
   12176    377.67693   -531.32384    5257.1261    4502.0069   -410.77809      2516.18     5893.011    45606.225    1.0482087   -5043.7996 
   12192    376.76085    1308.0106    5266.5143    4491.0871   -370.89859    2516.9988    5862.0241     45607.52    1.0481789   -3193.3922 
   12208    375.01963    -543.5164    5296.8611    4470.3313   -399.80389    2519.6339    5919.8061    45640.259     1.047427   -5020.9016 
   12224      372.895   -893.63137    5330.3054    4445.0051   -412.62448    2526.4233    5958.6107     45672.18     1.046695   -5342.5389 
   12240    374.63675    140.25394    5337.5609    4465.7672   -380.58446    2525.5781    5935.1192    45707.016    1.0458972   -4326.0273 
   12256    371.42391   -1706.5026    5410.3126    4427.4694   -425.41865    2530.9879    6046.5946    45772.236    1.0444069   -6128.1723 
   12272    378.83257   -1556.6654    5355.4429    4515.7825   -422.15249    2517.1225     6003.212    45825.591    1.0431909   -6061.2816 
   12288    382.97242    1488.9099    5346.6664    4565.1306   -348.13803    2521.6703    5913.5965    45873.318    1.0421056   -3060.1946 
   12304    382.95374    73.997003    5385.6415    4564.9079   -377.82402    2521.8173    5982.8162    45949.124    1.0403863   -4467.3808 
   12320    384.99236    754.92442    5367.7422    4589.2088   -363.00424    2514.4477     5957.199    46021.546    1.0387491   -3803.4445 
   12336    381.49781    -88.64427    5404.4032    4547.5528   -369.32314    2516.2464    5998.6758    46105.022    1.0368684   -4597.4588 
   12352    385.42554    145.80363    5351.7437    4594.3724   -354.00208    2518.0693    5929.3952    46185.799     1.035055   -4401.4648 
   12368    378.69131    1381.3458     5439.376    4514.0987   -335.72615    2524.5661     5992.574    46261.685    1.0333571    -3079.143 
   12384    389.23354   -715.25156    5281.6681    4639.7647   -402.31417    2528.1323    5895.9992     46352.35    1.0313358   -5290.9464 
   12400    384.54217   -410.19962    5332.0058    4583.8424    -374.1539    2521.9525    5925.1708      46412.3    1.0300037   -4924.9052 
   12416    379.50427     2374.314    5383.9713    4523.7893   -348.50074    2532.9545    5938.1311    46445.429     1.029269   -2078.0661 
   12432    378.74653   -791.73172    5365.2498    4514.7568   -400.15627    2542.0785    5961.5256    46503.928    1.0279742   -5229.6324 
   12448    381.92753   -2456.6403    5307.2816    4552.6753   -443.92941    2525.6651    5964.5944    46533.855    1.0273131   -6928.9358 
   12464     375.1242    134.18167    5388.8756    4471.5778   -367.77786    2526.3442    5968.6966    46515.058    1.0277283   -4260.2233 
   12480    380.73884   -321.51705    5289.6592    4538.5057   -329.95869    2531.1438    5826.5614     46504.42    1.0279634   -4782.7151 
   12496     372.1082   -1509.8319    5376.2545    4435.6262   -368.50589    2528.9318    5954.2903    46488.217    1.0283217   -5871.4226 
   12512     377.1044   -1221.5488    5306.5208    4495.1823   -380.89848    2530.1555    5896.2603    46464.597    1.0288444   -5643.9485 
   12528    378.30051   -813.28145    5266.9482    4509.4402   -361.80482    2536.7329    5829.6463    46439.496    1.0294005   -5252.1061 
   12544    375.71988    1672.5623    5269.9626    4478.6784   -335.12219     2529.124    5814.1317    46398.065    1.0303197   -2739.9189 
   12560    369.07274    989.07431    5328.2153    4399.4428   -370.22433    2534.7918    5902.5256    46376.176     1.030806   -3347.3881 
   12576    376.37736    310.83533    5227.0179    4486.5158   -395.47848    2529.8618    5832.6276    46351.731    1.0313496   -4113.7858 
   12592    373.31983    1908.6218    5259.4352    4450.0693   -334.10299    2515.8627    5817.6506    46291.212    1.0326979   -2485.7932 
   12608    377.21746    1480.5093    5224.7503      4496.53   -308.65662    2525.7748    5745.3793    46246.641    1.0336932   -2964.0648 
   12624    374.26955   -826.36471    5303.4869    4461.3902   -387.75424    2521.3972     5908.207    46220.704    1.0342733   -5238.6796 
   12640    379.80539    2431.7102    5273.9831    4527.3788   -345.70294    2522.9721    5835.1728     46166.33    1.0354914    -2051.141 
   12656    377.42551    1350.5307    5357.9056      4499.01   -387.82849    2528.5394    5955.6593    46136.718     1.036156   -3107.0899 
   12672     376.4385    32.494777    5415.2713    4487.2445   -387.97319    2526.2777    6016.4154    46116.636    1.0366073   -4415.4048 
   12688    387.28871    1234.0238    5291.0194    4616.5819   -368.55065    2518.7774    5881.3386    46086.618    1.0372824   -3345.0596 
   12704    383.90548   -1651.2252    5357.7451    4576.2529   -400.20157    2529.0699    5970.2438    46085.529     1.037307   -6190.4145 
   12720     380.1494   -2174.2447    5402.1738    4531.4795   -420.94411    2530.0676    6032.4187    46080.976    1.0374095   -6669.4673 
   12736     385.9039    1460.5344    5325.9136    4600.0745   -373.18327    2522.2146     5917.105    46069.528    1.0376672   -3103.8683 
   12752    381.20651   -235.24967     5385.806    4544.0805     -397.095     2519.573    6002.2098    46086.034    1.0372956   -4742.4777 
   12768    381.14852   -806.78525    5334.9585    4543.3892   -406.71806    2528.7788    5952.6559    46094.475    1.0371056   -5312.5024 
   12784    378.11597    1050.4743     5321.466    4507.2405   -396.49407    2525.1933    5932.8274    46097.636    1.0370345   -3419.0873 
   12800    375.81278   -1158.9036    5333.0622    4479.7858   -431.65487    2518.2111    5987.7987     46122.74    1.0364701   -5598.8221 
   12816    382.12915   -636.84511    5209.7348    4555.0786   -435.98979    2522.7365    5862.0397    46114.909    1.0366461    -5152.153 
   12832    378.40764    715.83571    5238.9161    4510.7172   -384.61037    2535.5046    5827.0734    46094.733    1.0370998   -3757.4553 
   12848    378.82032    471.66007    5242.5384    4515.6364   -415.35135    2534.1553    5864.3418    46096.622    1.0370573   -4006.3258 
   12864    375.57998    159.33668    5281.4299    4477.0108   -404.04692     2528.183    5898.8268     46083.03    1.0373632    -4281.655 
   12880    373.82165   -179.55223    5306.5983     4456.051   -390.28541    2524.9014    5913.6088    46058.691    1.0379114   -4602.0886 
   12896    374.39636   -450.18688    5322.1655    4462.9018   -399.13082    2527.7678    5934.9454    46039.423    1.0383458   -4881.3762 
   12912    377.63719    615.18364    5293.8805    4501.5333   -387.81508    2523.8863    5900.1939    46001.396    1.0392041   -3858.0575 
   12928    371.15704   -359.28768    5378.6654    4424.2882   -421.64208    2522.8401    6019.3289    45962.453    1.0400846   -4759.4942 
   12944    381.11152   -535.69033    5274.7191    4542.9482   -428.63479     2522.005    5922.3661    45919.088    1.0410668   -5058.1779 
   12960    377.79353     1565.119    5341.8136    4503.3968   -368.34091      2530.03    5920.1994    45858.341    1.0424459    -2923.934 
   12976    382.26553   -485.22247    5285.2183    4556.7042   -392.12301    2535.0097    5884.3582    45817.847    1.0433672   -5031.4274 
   12992    377.75581   -1854.1269    5355.7419    4502.9473   -400.93092    2533.6033    5963.8701    45783.451    1.0441511    -6350.074 
   13008    374.53535    1642.1298    5439.6182    4464.5585   -336.54293    2525.3721    5990.6968    45743.476    1.0450635   -2819.3836 
   13024     380.7839    217.69532    5374.6428    4539.0429   -429.43165     2529.844     6014.607    45745.263    1.0450227   -4318.0745 
   13040    380.76288   -736.57677    5394.7952    4538.7923    -442.6912    2531.1843     6049.019    45749.531    1.0449253   -5271.6731 
   13056    384.43254    2169.3737    5366.9698    4582.5356   -386.73969    2525.8172    5967.9587    45743.742    1.0450575   -2410.0098 
   13072    375.49626    657.91411     5488.406    4476.0129      -365.58    2524.7207     6070.281     45773.81     1.044371   -3812.0817 
   13088    378.99147   -1041.2302    5448.5172    4517.6766   -394.85654    2532.4887    6049.4764    45809.213    1.0435639    -5549.347 
   13104    380.38824     1667.196    5431.1441    4534.3265   -372.50464    2532.1434    6011.0723    45841.182    1.0428361   -2854.3799 
   13120    384.60029    1406.0884    5376.8824    4584.5352   -373.09937    2529.3408    5959.7408    45902.902    1.0414339   -3159.4082 
   13136    384.91182   -287.46629    5357.5308    4588.2487   -397.34633    2539.1705    5955.1982    45971.363     1.039883   -4849.8565 
   13152    376.87758   -688.13378    5410.2673    4492.4785   -404.93311    2542.0936    6012.4747    46040.604    1.0383191   -5148.5753 
   13168    379.86676   -862.13655    5325.0068    4528.1103   -414.13885    2533.6787    5944.6471    46115.442    1.0366341   -5350.6597 
   13184    374.71557   -444.22742    5357.9678    4466.7068   -373.21168    2528.1899    5941.8674    46179.649    1.0351928   -4865.7278 
   13200    381.29424   -1915.4104     5250.982    4545.1262   -422.23934    2540.5351    5870.3003     46254.37    1.0335205   -6407.2685 
   13216    373.75504   -2703.4276    5319.4672     4455.257    -432.0296    2538.4391    5952.0235    46320.473    1.0320456   -7100.1863 
   13232    377.74235   -391.45706    5268.1426    4502.7868   -405.67396    2541.6626    5871.5417    46347.036    1.0314541   -4832.5746 
   13248    373.13353   -594.07755    5350.5643    4447.8484   -386.17183    2548.0271     5928.362    46372.495    1.0308878   -4978.6007 
   13264     378.0222   -942.45631    5289.6518    4506.1226   -405.17562    2547.5193     5886.713    46394.777    1.0303927   -5382.2907 
   13280    373.33613    832.62491    5367.6502    4450.2635   -342.33015    2544.0806    5905.4622    46396.284    1.0303592   -3552.0296 
   13296    375.56047   -232.72853    5407.6025    4476.7782    -350.3999    2539.0815    5958.6718    46405.633    1.0301516   -4642.6182 
   13312    383.45091   -412.59341    5359.1586    4570.8343   -359.73493    2535.6504    5921.8329    46412.703    1.0299947    -4914.448 
   13328    386.04989    1708.5121    5358.1125    4601.8148   -343.90925    2537.9924    5903.1469    46402.163    1.0302287   -2824.8851 
   13344    385.97393    730.74419    5379.2386    4600.9094   -386.04353    2531.4286    5975.5876    46393.772     1.030415   -3802.5807 
   13360    383.23622    771.02465    5427.9565    4568.2752    -382.7524    2538.0779    6013.3809    46368.876    1.0309683   -3732.5622 
   13376    384.57767    1929.6423    5395.9845    4584.2655    -365.2748    2537.6722    5963.3376    46331.007    1.0318109   -2593.4024 
   13392    382.80882   -637.85458    5403.8062    4563.1804    -361.3101     2535.386    5969.7084    46314.014    1.0321895   -5141.7476 
   13408    383.06916    -2202.677    5396.5589    4566.2838    -401.7517    2539.4351    5999.0317    46295.027    1.0326129   -6711.4816 
   13424    379.43536    638.23229    5428.4817     4522.968   -352.09049    2536.3405    5984.9513     46256.51    1.0334727   -3831.5204 
   13440    385.00976   -400.87504    5331.0345    4589.4162   -404.30536    2539.3551    5935.7972    46238.749    1.0338697   -4938.0363 
   13456    385.61157   -1330.9624    5306.1461    4596.5899   -423.48798    2535.0233    5935.0055    46211.496    1.0344794   -5877.8957 
   13472      378.907    143.69482    5361.8682    4516.6697   -378.46257     2524.821    5956.2029    46158.411    1.0356691     -4329.32 
   13488     376.6608   -1110.1949    5366.5456    4489.8945   -403.91734    2521.1355    5988.5476    46110.491    1.0367454   -5561.3143 
   13504    381.25185   -860.18994    5282.3267    4544.6209   -413.85463    2519.5755    5916.5985    46045.046     1.038219   -5371.9667 
   13520    380.65914    930.30862    5288.2272    4537.5557   -402.05872    2518.5197    5913.3768    45968.167    1.0399553    -3581.988 
   13536    376.77638    687.45001    5337.7358    4491.2722   -417.99826    2525.9761    5972.3415    45902.466    1.0414438   -3785.2134 
   13552    373.72583    1424.7698    5361.1151    4454.9089     -403.074    2515.7847    5989.9558    45825.869    1.0431846   -3019.0963 
   13568    378.11959    2274.1556    5303.7078    4507.2835   -383.52711    2516.9124    5912.4078    45750.234    1.0449092   -2229.3884 
   13584    379.25974    792.55239    5309.0718    4520.8744   -394.50157      2523.29     5922.501     45688.74    1.0463156    -3730.651 
   13600    380.61481    893.03615    5278.3444    4537.0273   -397.79508    2528.6196    5889.6211    45628.266    1.0477023   -3652.3447 
   13616    379.01244   -817.32873    5301.7337    4517.9266   -417.30856    2532.9396    5927.0706    45595.794    1.0484484   -5346.7971 
   13632    375.41141   -1685.5451    5377.4558    4475.0014   -442.39459    2541.9923    6018.2726    45588.637    1.0486131   -6172.6831 
   13648    382.06755     853.2043    5300.8693    4554.3443   -412.56392    2544.5894    5909.7376    45580.047    1.0488107   -3714.3524 
   13664    380.79751    400.83993    5331.1145    4539.2051   -432.13658    2540.3131    5964.4685    45588.409    1.0486183   -4150.6986 
   13680     382.5686   -509.55003    5333.4192     4560.317   -424.73367    2542.0038    5956.2912    45614.256    1.0480241   -5079.6666 
   13696    378.85821    500.46171     5428.851    4516.0881   -387.10426    2540.9609    6015.4029    45643.003     1.047364   -4022.4806 
   13712     382.0286   0.43352388    5448.2174      4553.88   -380.45138    2537.0245     6034.066    45692.562    1.0462281   -4555.4113 
   13728    386.59027   -385.12328    5439.7146    4608.2563   -399.02694    2532.9308    6047.8307    45756.998    1.0447547   -4988.8755 
   13744    388.82173    712.19427    5438.9972    4634.8559   -430.41459    2535.2529    6075.9425        45821    1.0432954    -3911.664 
   13760    389.03903    1688.3019    5446.4352    4637.4462   -410.73391     2535.062    6063.6439     45883.91     1.041865   -2931.7974 
   13776    391.53707    1171.8793    5386.6632    4667.2234   -391.72244    2534.3885    5985.9161    45944.362    1.0404941   -3471.7679 
   13792    385.73599    1118.0322    5419.6278    4598.0731   -385.67332    2527.2041    6020.2183     46000.25      1.03923   -3451.2558 
   13808    389.56473    855.36833    5323.8621    4643.7126   -405.27885     2528.803    5943.1049    46059.894    1.0378843   -3753.2978 
   13824    383.98574   -233.29884    5353.3574    4577.2097   -428.93125    2538.3596    5986.2266    46108.595     1.036788   -4771.1659 
   13840    386.58187    76.820122    5300.0808    4608.1562   -394.64603    2532.3422    5905.2051    46136.306    1.0361653   -4488.9834 
   13856    378.95369    157.78086    5372.4531    4517.2263   -373.24761    2524.5624    5962.8083     46168.63    1.0354399    -4314.795 
   13872    381.67314   -569.34462    5327.5306    4549.6428   -383.31666     2530.546    5922.0449    46207.667    1.0345651   -5070.2109 
   13888     380.8407   -281.17307    5331.5977    4539.7199   -398.57658     2531.907    5938.4344    46238.697    1.0338708    -4769.209 
   13904     380.1076   -870.37418    5329.5573    4530.9812   -381.80455    2535.9325    5915.3263    46273.216    1.0330996   -5346.4293 
   13920    377.79035   -219.49794    5353.1122     4503.359   -364.16772    2527.8833    5928.7098    46304.366    1.0324046   -4665.2729 
   13936    383.66751   -486.78874     5292.365    4573.4162   -388.88775    2527.1355     5893.562    46343.832    1.0315254   -4997.8803 
   13952    380.00001   -527.72525    5338.6588    4529.6986   -374.97113    2525.8499    5927.0239     46374.84    1.0308357   -4992.7075 
   13968    378.72928    910.73086    5353.8456    4514.5513   -335.20899    2520.9922    5906.9911    46383.505    1.0306431   -3538.4891 
   13984    380.73924      1192.23    5333.3935    4538.5105   -335.97739    2509.7505    5899.9748    46388.978    1.0305215   -3280.0748 
   14000    386.69552   -10.017492    5272.7292    4609.5109   -367.37104    2517.1681    5863.4358    46386.493    1.0305767   -4552.5303 
   14016    381.97222   -226.63701    5344.3537     4553.208   -376.73747    2515.4824    5945.1324    46364.802    1.0310589   -4715.7644 
   14032     379.0028   -458.42686    5381.0931    4517.8117   -353.71536    2521.9962    5953.1546    46343.919    1.0315235   -4914.6633 
   14048    381.66855   -860.98893    5364.4854    4549.5881   -365.48255    2520.1338    5950.5307    46325.477    1.0319341   -5350.3551 
   14064    381.61726   -351.85598    5384.1788    4548.9768   -369.21701    2530.8486    5963.0943    46305.075    1.0323888   -4842.5967 
   14080    378.22136   -557.30117    5452.2344    4508.4968   -373.17127     2540.702    6025.3505     46296.77     1.032574   -5008.8785 
   14096    381.06783   -1228.0751    5437.0199    4542.4273   -404.25208    2540.7583    6041.0711    46283.707    1.0328654   -5714.4205 
   14112    382.18562   -1481.9206    5432.3275    4555.7517   -361.26784    2546.4291    5987.5234    46253.512    1.0335397   -5984.3632 
   14128    377.29593   -2410.9394    5508.1084    4497.4653    -376.0827    2543.1045    6082.1545    46230.635    1.0340511   -6857.9772 
   14144    385.10365   -2162.7886    5418.4191    4590.5354   -399.47211    2534.7002    6024.4801    46207.686    1.0345647   -6704.1072 
   14160    384.33988   -680.71863    5420.7599    4581.4311   -364.22596    2529.7302    5996.8721    46179.904    1.0351871   -5215.7572 
   14176    379.17333   -340.40546    5465.0003    4519.8444   -341.79649    2536.7482     6011.489    46167.401    1.0354674   -4815.6926 
   14192    386.45841    939.25019    5336.6977    4606.6845   -380.52496    2526.6816    5932.1122    46148.606    1.0358892   -3623.8788 
   14208    385.24886    1137.2631    5298.4827    4592.2664   -360.79929    2527.1579     5873.359    46129.063     1.036328   -3413.5111 
